Variables = X,Ro,U,P,T
Zone i = 100
        0.005000		1.200000		0.000000		100000.000000		290.215589
        0.015000		1.200000		0.000000		100000.000000		290.215589
        0.025000		1.200000		0.000000		100000.000000		290.215589
        0.035000		1.200000		0.000000		100000.000000		290.215589
        0.045000		1.200000		0.000000		100000.000000		290.215589
        0.055000		1.200000		0.000000		100000.000000		290.215589
        0.065000		1.200000		0.000000		100000.000000		290.215589
        0.075000		1.200000		0.000000		100000.000000		290.215589
        0.085000		1.200000		0.000000		100000.000000		290.215589
        0.095000		1.200000		0.000000		100000.000000		290.215589
        0.105000		1.200000		0.000000		100000.000000		290.215589
        0.115000		1.200000		0.000000		100000.000000		290.215589
        0.125000		1.200000		0.000000		100000.000000		290.215589
        0.135000		1.200000		0.000000		100000.000000		290.215589
        0.145000		1.200000		0.000000		100000.000000		290.215589
        0.155000		1.200000		0.000000		100000.000000		290.215589
        0.165000		1.200000		0.000000		100000.000000		290.215589
        0.175000		1.200000		0.000000		100000.000000		290.215589
        0.185000		1.200000		0.000000		100000.000000		290.215589
        0.195000		1.200000		0.000000		100000.000000		290.215589
        0.205000		1.200000		0.000000		99999.999999		290.215589
        0.215000		1.200000		0.000000		99999.999992		290.215589
        0.225000		1.200000		0.000001		99999.999903		290.215589
        0.235000		1.200000		0.000008		99999.998966		290.215588
        0.245000		1.200000		0.000072		99999.990104		290.215581
        0.255000		1.199999		0.000579		99999.915237		290.215518
        0.265000		1.199994		0.004142		99999.354909		290.215054
        0.275000		1.199963		0.025921		99995.678548		290.212005
        0.285000		1.199784		0.140126		99974.815705		290.194695
        0.295000		1.198923		0.642605		99874.284172		290.111103
        0.305000		1.195499		2.438743		99473.906816		289.775759
        0.315000		1.184712		7.420316		98209.275250		288.696514
        0.325000		1.159263		17.580102		95220.768146		286.056342
        0.335000		1.116535		32.348994		90236.859102		281.457970
        0.345000		1.065298		48.440598		84379.467326		275.846614
        0.355000		1.015986		63.858988		78886.309446		270.405733
        0.365000		0.970590		78.724157		73936.460824		265.292347
        0.375000		0.927859		93.293257		69367.728331		260.361827
        0.385000		0.887276		107.637061		65114.463775		255.576294
        0.395000		0.848596		121.796398		61140.517337		250.917084
        0.405000		0.811651		135.793225		57419.837674		246.373964
        0.415000		0.776322		149.639461		53932.451306		241.941384
        0.425000		0.742520		163.339793		50662.146602		237.616930
        0.435000		0.710174		176.893136		47595.361899		233.400560
        0.445000		0.679228		190.293115		44720.555136		229.294324
        0.455000		0.649641		203.528042		42027.815481		225.302279
        0.465000		0.621379		216.580572		39508.617021		221.430561
        0.475000		0.594420		229.427087		37155.654843		217.687565
        0.485000		0.568752		242.036911		34962.732543		214.084199
        0.495000		0.544370		254.371393		32924.680080		210.634242
        0.505000		0.521280		266.382981		31037.285323		207.355004
        0.515000		0.499489		278.014416		29297.223560		204.268928
        0.525000		0.479003		289.198306		27701.968729		201.406736
        0.535000		0.459814		299.857406		26249.669337		198.812362
        0.545000		0.441885		309.906036		24938.970057		196.549231
        0.555000		0.425135		319.253099		23768.756790		194.706952
        0.565000		0.409428		327.807144		22737.801513		193.407467
        0.575000		0.394558		335.483649		21844.290233		192.810027
        0.585000		0.380246		342.214271		21085.240841		193.114866
        0.595000		0.366145		347.957065		20455.861793		194.565668
        0.605000		0.351855		352.705827		19948.961365		197.450518
        0.615000		0.336965		356.496120		19554.569486		202.099887
        0.625000		0.321117		359.405652		19259.946712		208.878498
        0.635000		0.304097		361.547800		19050.097354		218.165886
        0.645000		0.285915		363.059072		18908.773025		230.318620
        0.655000		0.266856		364.083232		18819.789020		245.606421
        0.665000		0.247475		364.755841		18768.351814		264.117368
        0.675000		0.228509		365.192532		18742.078012		285.638460
        0.685000		0.210744		365.482766		18731.489872		309.540999
        0.695000		0.194869		365.688852		18729.950890		334.730341
        0.705000		0.181357		365.848401		18733.167739		359.732718
        0.715000		0.170408		365.977244		18738.452981		382.952193
        0.725000		0.161965		366.068761		18743.881982		403.032820
        0.735000		0.155758		366.082763		18747.282046		419.169853
        0.745000		0.151382		365.908228		18744.601151		431.223676
        0.755000		0.148350		365.258722		18726.333942		439.608592
        0.765000		0.146083		363.388859		18668.481039		445.051626
        0.775000		0.143770		358.324019		18508.722277		448.342208
        0.785000		0.139922		344.724644		18082.914869		450.073955
        0.795000		0.131265		307.238617		16956.668371		449.876397
        0.805000		0.111350		210.985480		13951.313349		436.341603
        0.815000		0.081125		69.377084		8529.313860		366.152727
        0.825000		0.063039		4.755949		5414.522228		299.124545
        0.835000		0.060102		0.067667		5012.065862		290.423060
        0.845000		0.060001		0.000712		5000.142511		290.217954
        0.855000		0.060000		0.000007		5000.001493		290.215613
        0.865000		0.060000		0.000000		5000.000016		290.215589
        0.875000		0.060000		0.000000		5000.000000		290.215589
        0.885000		0.060000		0.000000		5000.000000		290.215589
        0.895000		0.060000		0.000000		5000.000000		290.215589
        0.905000		0.060000		0.000000		5000.000000		290.215589
        0.915000		0.060000		0.000000		5000.000000		290.215589
        0.925000		0.060000		0.000000		5000.000000		290.215589
        0.935000		0.060000		0.000000		5000.000000		290.215589
        0.945000		0.060000		0.000000		5000.000000		290.215589
        0.955000		0.060000		0.000000		5000.000000		290.215589
        0.965000		0.060000		0.000000		5000.000000		290.215589
        0.975000		0.060000		0.000000		5000.000000		290.215589
        0.985000		0.060000		0.000000		5000.000000		290.215589
        0.995000		0.060000		0.000000		5000.000000		290.215589
