Variables = X,Ro,U,P,T
Zone i = 100
        0.005000		1.200000		0.000000		100000.000000		290.215589
        0.015000		1.200000		0.000000		100000.000000		290.215589
        0.025000		1.200000		0.000000		100000.000000		290.215589
        0.035000		1.200000		0.000000		100000.000000		290.215589
        0.045000		1.200000		0.000000		100000.000000		290.215589
        0.055000		1.200000		0.000000		100000.000000		290.215589
        0.065000		1.200000		0.000000		100000.000000		290.215589
        0.075000		1.200000		0.000000		100000.000000		290.215589
        0.085000		1.200000		0.000000		100000.000000		290.215589
        0.095000		1.200000		0.000000		100000.000000		290.215589
        0.105000		1.200000		0.000000		100000.000000		290.215589
        0.115000		1.200000		0.000000		100000.000000		290.215589
        0.125000		1.200000		0.000000		100000.000000		290.215589
        0.135000		1.200000		0.000000		100000.000000		290.215589
        0.145000		1.200000		0.000000		99999.999998		290.215589
        0.155000		1.200000		0.000000		99999.999991		290.215589
        0.165000		1.200000		0.000000		99999.999963		290.215589
        0.175000		1.200000		0.000000		99999.999842		290.215589
        0.185000		1.200000		0.000002		99999.999352		290.215588
        0.195000		1.200000		0.000006		99999.997422		290.215587
        0.205000		1.200000		0.000024		99999.990055		290.215580
        0.215000		1.200000		0.000091		99999.962889		290.215558
        0.225000		1.199999		0.000326		99999.866211		290.215478
        0.235000		1.199996		0.001135		99999.534882		290.215203
        0.245000		1.199987		0.003796		99998.443923		290.214298
        0.255000		1.199957		0.012193		99995.002355		290.211445
        0.265000		1.199868		0.037485		99984.636685		290.202849
        0.275000		1.199614		0.109912		99954.958889		290.178237
        0.285000		1.198925		0.306016		99874.644212		290.111612
        0.295000		1.197176		0.804543		99670.739988		289.942325
        0.305000		1.193047		1.983739		99189.942797		289.542316
        0.315000		1.184116		4.546061		98152.465654		288.674883
        0.325000		1.166903		9.529937		96162.224941		286.993262
        0.335000		1.138777		17.804197		92935.478132		284.213558
        0.345000		1.100960		29.190179		88646.080874		280.407629
        0.355000		1.057490		42.668305		83786.516627		275.930592
        0.365000		1.011753		57.334720		78758.434045		271.096846
        0.375000		0.965586		72.687037		73774.095518		266.081704
        0.385000		0.919881		88.475278		68932.635238		260.972710
        0.395000		0.875093		104.568371		64280.598308		255.816081
        0.405000		0.831463		120.892090		59839.539086		250.638333
        0.415000		0.789122		137.402712		55617.931963		245.455484
        0.425000		0.748136		154.075211		51616.764437		240.277157
        0.435000		0.708525		170.897983		47832.387417		235.108763
        0.445000		0.670281		187.871278		44257.936502		229.951447
        0.455000		0.633361		205.009446		40883.900786		224.803365
        0.465000		0.597689		222.347195		37697.621089		219.654964
        0.475000		0.563124		239.960796		34682.172240		214.488717
        0.485000		0.529392		258.000817		31810.010447		209.260931
        0.495000		0.495906		276.856412		29035.541291		203.907070
        0.505000		0.461302		297.480296		26229.242431		198.016860
        0.515000		0.432154		315.999648		23917.235551		192.741163
        0.525000		0.406395		331.963288		22003.072430		188.554690
        0.535000		0.386388		345.337141		20594.818555		185.624965
        0.545000		0.377101		355.206493		19729.588276		182.205751
        0.555000		0.371125		359.269061		19096.015499		179.194503
        0.565000		0.365340		361.110612		18759.449252		178.823533
        0.575000		0.360195		363.115019		18696.188105		180.766232
        0.585000		0.358678		364.837275		18714.735273		181.710895
        0.595000		0.358850		365.583389		18708.733345		181.565587
        0.605000		0.359493		365.518699		18659.507969		180.763990
        0.615000		0.360782		364.897376		18590.234326		179.449617
        0.625000		0.361471		364.382942		18555.772079		178.775406
        0.635000		0.360972		364.246322		18563.994275		179.101563
        0.645000		0.357930		364.347162		18597.896115		180.953893
        0.655000		0.348572		364.774708		18654.783312		186.379978
        0.665000		0.327206		365.132872		18693.830948		198.965915
        0.675000		0.287978		365.181513		18697.982507		226.119511
        0.685000		0.232053		365.147704		18692.670881		280.534158
        0.695000		0.180456		364.970690		18678.217894		360.466888
        0.705000		0.154591		364.609134		18654.289493		420.238491
        0.715000		0.145556		364.339611		18637.418362		445.919412
        0.725000		0.143027		364.303439		18634.890031		453.742685
        0.735000		0.142605		364.347541		18637.157425		455.142134
        0.745000		0.142721		364.546575		18648.871164		455.058268
        0.755000		0.143303		365.021266		18677.491404		453.904417
        0.765000		0.143952		365.197707		18687.955681		452.113039
        0.775000		0.144098		364.927479		18671.038252		451.245635
        0.785000		0.143722		363.126566		18560.399571		449.744725
        0.795000		0.141167		355.203322		18080.429103		446.044578
        0.805000		0.131172		324.401453		16318.627235		433.257170
        0.815000		0.102912		220.409884		11490.751562		388.853000
        0.825000		0.069323		55.039758		6226.659476		312.807766
        0.835000		0.061136		6.527495		5134.892011		292.508411
        0.845000		0.060131		0.745244		5015.286436		290.469697
        0.855000		0.060015		0.084109		5001.723939		290.244185
        0.865000		0.060002		0.009487		5000.194428		290.218813
        0.875000		0.060000		0.001070		5000.021926		290.215952
        0.885000		0.060000		0.000121		5000.002473		290.215630
        0.895000		0.060000		0.000014		5000.000279		290.215593
        0.905000		0.060000		0.000002		5000.000031		290.215589
        0.915000		0.060000		0.000000		5000.000004		290.215589
        0.925000		0.060000		0.000000		5000.000000		290.215589
        0.935000		0.060000		0.000000		5000.000000		290.215589
        0.945000		0.060000		0.000000		5000.000000		290.215589
        0.955000		0.060000		0.000000		5000.000000		290.215589
        0.965000		0.060000		0.000000		5000.000000		290.215589
        0.975000		0.060000		0.000000		5000.000000		290.215589
        0.985000		0.060000		0.000000		5000.000000		290.215589
        0.995000		0.060000		0.000000		5000.000000		290.215589
