Variables = X,Ro,U,P,T
Zone i = 100
        0.005000		1.200000		0.000000		100000.000000		290.215589
        0.015000		1.200000		0.000000		100000.000000		290.215589
        0.025000		1.200000		0.000000		100000.000000		290.215589
        0.035000		1.200000		0.000000		100000.000000		290.215589
        0.045000		1.200000		0.000000		100000.000000		290.215589
        0.055000		1.200000		0.000000		100000.000000		290.215589
        0.065000		1.200000		0.000000		100000.000000		290.215589
        0.075000		1.200000		0.000000		100000.000000		290.215589
        0.085000		1.200000		0.000000		100000.000000		290.215589
        0.095000		1.200000		0.000000		100000.000000		290.215589
        0.105000		1.200000		0.000000		100000.000000		290.215589
        0.115000		1.200000		0.000000		100000.000000		290.215589
        0.125000		1.200000		0.000000		100000.000000		290.215589
        0.135000		1.200000		0.000000		100000.000000		290.215589
        0.145000		1.200000		0.000000		99999.999998		290.215589
        0.155000		1.200000		0.000000		99999.999990		290.215589
        0.165000		1.200000		0.000000		99999.999957		290.215589
        0.175000		1.200000		0.000000		99999.999818		290.215589
        0.185000		1.200000		0.000002		99999.999255		290.215588
        0.195000		1.200000		0.000007		99999.997039		290.215586
        0.205000		1.200000		0.000028		99999.988605		290.215579
        0.215000		1.200000		0.000103		99999.957578		290.215554
        0.225000		1.199999		0.000372		99999.847450		290.215462
        0.235000		1.199995		0.001290		99999.471105		290.215150
        0.245000		1.199985		0.004304		99998.235793		290.214126
        0.255000		1.199952		0.013779		99994.352336		290.210906
        0.265000		1.199852		0.042208		99982.701186		290.201244
        0.275000		1.199567		0.123258		99949.490848		290.173702
        0.285000		1.198800		0.341591		99860.079623		290.099527
        0.295000		1.196865		0.893313		99634.467364		289.912192
        0.305000		1.192329		2.189121		99106.415311		289.472714
        0.315000		1.182609		4.979990		97977.726235		288.528247
        0.325000		1.164123		10.340180		95842.027191		286.720635
        0.335000		1.134489		19.079718		92446.436749		283.786570
        0.345000		1.095434		30.879712		88024.246851		279.845317
        0.355000		1.051205		44.653031		83090.598733		275.274743
        0.365000		1.005114		59.506968		78036.178833		270.385010
        0.375000		0.958899		74.957889		73060.187414		265.344292
        0.385000		0.913400		90.763013		68253.936763		260.236861
        0.395000		0.869040		106.790722		63659.355914		255.108254
        0.405000		0.826047		122.961749		59295.003274		249.985732
        0.415000		0.784546		139.223484		55167.424116		244.887180
        0.425000		0.744605		155.537559		51276.604988		239.825397
        0.435000		0.706257		171.873475		47618.759222		234.810305
        0.445000		0.669514		188.205908		44187.706478		229.849534
        0.455000		0.634365		204.514600		40975.405698		224.950050
        0.465000		0.600781		220.786511		37972.134729		220.115584
        0.475000		0.568728		237.017694		35166.575920		215.341457
        0.485000		0.538107		253.210303		32546.367217		210.637607
        0.495000		0.508861		269.375178		30099.612411		205.998518
        0.505000		0.480974		285.543676		27820.121546		201.436990
        0.515000		0.454266		301.462849		25686.427111		196.922529
        0.525000		0.430558		317.430636		23761.625083		192.197053
        0.535000		0.406500		332.035121		22058.704982		188.982347
        0.545000		0.377899		349.756412		20058.486574		184.852350
        0.555000		0.371997		362.377753		19196.508313		179.715393
        0.565000		0.364039		363.895381		18596.638715		177.905040
        0.575000		0.356219		364.434255		18436.689577		180.247061
        0.585000		0.355244		364.894098		18458.065441		180.951289
        0.595000		0.355799		365.646593		18543.838914		181.508593
        0.605000		0.357823		365.961058		18601.528028		181.043242
        0.615000		0.362607		365.950156		18642.247403		179.045589
        0.625000		0.366161		365.432680		18673.636025		177.606324
        0.635000		0.365437		364.789267		18636.327122		177.602912
        0.645000		0.361171		364.418925		18602.500495		179.374638
        0.655000		0.349134		364.355293		18607.595725		185.609378
        0.665000		0.323246		364.565340		18640.479907		200.828650
        0.675000		0.278059		365.564446		18767.776967		235.059416
        0.685000		0.214791		365.460271		18838.648168		305.447162
        0.695000		0.166719		365.799167		18799.980921		392.712032
        0.705000		0.148825		366.096623		18753.417738		438.840284
        0.715000		0.143431		365.977025		18723.734639		454.622546
        0.725000		0.142030		365.501953		18690.660695		458.296585
        0.735000		0.141725		364.439753		18628.132958		457.746044
        0.745000		0.141604		362.482652		18512.831529		455.302043
        0.755000		0.141736		361.417079		18448.426692		453.296038
        0.765000		0.142280		361.358447		18446.559606		451.515732
        0.775000		0.142606		361.309322		18449.192565		450.548952
        0.785000		0.142568		360.645130		18416.192291		449.861792
        0.795000		0.141239		355.638091		18133.290926		447.120511
        0.805000		0.133312		329.681005		16668.696566		435.447308
        0.815000		0.105398		226.533803		11839.220373		391.193614
        0.825000		0.069796		57.077314		6284.358572		313.567203
        0.835000		0.061186		6.797310		5140.789542		292.604440
        0.845000		0.060137		0.778996		5015.981773		290.481215
        0.855000		0.060015		0.088054		5001.804784		290.245526
        0.865000		0.060002		0.009931		5000.203531		290.218964
        0.875000		0.060000		0.001118		5000.022914		290.215969
        0.885000		0.060000		0.000126		5000.002576		290.215631
        0.895000		0.060000		0.000014		5000.000289		290.215594
        0.905000		0.060000		0.000002		5000.000032		290.215589
        0.915000		0.060000		0.000000		5000.000004		290.215589
        0.925000		0.060000		0.000000		5000.000000		290.215589
        0.935000		0.060000		0.000000		5000.000000		290.215589
        0.945000		0.060000		0.000000		5000.000000		290.215589
        0.955000		0.060000		0.000000		5000.000000		290.215589
        0.965000		0.060000		0.000000		5000.000000		290.215589
        0.975000		0.060000		0.000000		5000.000000		290.215589
        0.985000		0.060000		0.000000		5000.000000		290.215589
        0.995000		0.060000		0.000000		5000.000000		290.215589
