Variables = X,Ro,U,P,T
Zone i = 100
        0.005000		1.200000		0.000000		100000.000000		290.215589
        0.015000		1.200000		0.000000		99999.999999		290.215589
        0.025000		1.200000		0.000000		99999.999998		290.215589
        0.035000		1.200000		0.000000		99999.999996		290.215589
        0.045000		1.200000		0.000000		99999.999987		290.215589
        0.055000		1.200000		0.000000		99999.999962		290.215589
        0.065000		1.200000		0.000000		99999.999894		290.215589
        0.075000		1.200000		0.000001		99999.999708		290.215589
        0.085000		1.200000		0.000003		99999.999212		290.215589
        0.095000		1.200000		0.000007		99999.997922		290.215588
        0.105000		1.200000		0.000019		99999.994641		290.215588
        0.115000		1.200000		0.000048		99999.986498		290.215586
        0.125000		1.200000		0.000117		99999.966771		290.215582
        0.135000		1.199999		0.000280		99999.920160		290.215572
        0.145000		1.199998		0.000653		99999.812824		290.215550
        0.155000		1.199995		0.001484		99999.572075		290.215503
        0.165000		1.199989		0.003291		99999.046509		290.215404
        0.175000		1.199977		0.007105		99997.930666		290.215202
        0.185000		1.199951		0.014927		99995.628466		290.214802
        0.195000		1.199899		0.030501		99991.016616		290.214036
        0.205000		1.199797		0.060575		99982.054558		290.212617
        0.215000		1.199605		0.116839		99965.176215		290.210082
        0.225000		1.199254		0.218723		99934.400089		290.205712
        0.235000		1.198632		0.397121		99880.122108		290.198445
        0.245000		1.197570		0.698873		99787.626003		290.186777
        0.255000		1.195819		1.191469		99635.468464		290.168627
        0.265000		1.193035		1.966971		99394.061888		290.141125
        0.275000		1.188772		3.143729		99024.945219		290.100204
        0.285000		1.182492		4.864389		98481.327108		290.039821
        0.295000		1.173596		7.289120		97710.412855		289.950667
        0.305000		1.161482		10.583990		96657.722120		289.818371
        0.315000		1.145622		14.905829		95273.085868		289.621494
        0.325000		1.125644		20.386129		93517.413003		289.329945
        0.335000		1.101402		27.117126		91368.868557		288.904659
        0.345000		1.073010		35.142783		88827.036220		288.299133
        0.355000		1.040841		44.456172		85914.050271		287.462960
        0.365000		1.005473		55.003159		82672.461352		286.346782
        0.375000		0.967623		66.690938		79160.448171		284.907631
        0.385000		0.928058		79.399205		75445.573392		283.113537
        0.395000		0.887527		92.991729		71598.423064		280.946599
        0.405000		0.846706		107.326530		67687.203416		278.404233
        0.415000		0.806167		122.263607		63773.892209		275.498775
        0.425000		0.766371		137.669742		59912.072389		272.255969
        0.435000		0.727670		153.420404		56146.251222		268.712926
        0.445000		0.690327		169.398876		52512.320377		264.916109
        0.455000		0.654538		185.492757		49038.798136		260.919762
        0.465000		0.620454		201.587918		45748.535351		256.785025
        0.475000		0.588207		217.560284		42660.566816		252.579664
        0.485000		0.557931		233.267272		39791.629043		248.377844
        0.495000		0.529769		248.544700		37156.394735		244.258267
        0.505000		0.503838		263.222931		34764.675145		240.297368
        0.515000		0.480151		277.178786		32614.257579		236.554917
        0.525000		0.458627		290.327402		30694.877537		233.081831
        0.535000		0.440975		301.464982		29150.038350		230.211316
        0.545000		0.386127		340.487081		24295.359462		219.126819
        0.555000		0.363713		357.250158		22439.392829		214.859592
        0.565000		0.348691		368.566416		21259.903783		212.335500
        0.575000		0.338224		376.216675		20494.705377		211.027491
        0.585000		0.330950		380.988956		20029.488780		210.770178
        0.595000		0.325647		383.619330		19775.640409		211.487810
        0.605000		0.321101		384.846302		19655.624605		213.180355
        0.615000		0.316216		385.290113		19608.483221		215.954496
        0.625000		0.310126		385.365670		19594.602385		220.039477
        0.635000		0.302236		385.294745		19593.160969		225.767052
        0.645000		0.292228		385.174131		19595.326872		233.524314
        0.655000		0.280073		385.040516		19598.007592		243.693167
        0.665000		0.266034		384.907829		19600.124663		256.580794
        0.675000		0.250652		384.780999		19600.990311		272.338586
        0.685000		0.234668		384.657161		19599.802564		290.870055
        0.695000		0.218909		384.522976		19595.522372		311.741553
        0.705000		0.204150		384.352483		19586.801350		334.129707
        0.715000		0.190897		384.327403		19555.601050		356.758014
        0.725000		0.178795		386.056615		19379.206989		377.471073
        0.735000		0.169603		385.954731		19293.576465		396.169421
        0.745000		0.162768		384.290306		19242.724973		411.717367
        0.755000		0.157437		381.686204		19136.963637		423.320116
        0.765000		0.152993		377.771955		18926.590591		430.828199
        0.775000		0.148757		371.681436		18550.360783		434.287117
        0.785000		0.143941		361.971297		17923.691055		433.656164
        0.795000		0.137659		346.426274		16940.886123		428.580882
        0.805000		0.129057		321.932534		15500.693111		418.282968
        0.815000		0.117646		284.806022		13571.592152		401.750576
        0.825000		0.103849		232.452140		11289.351858		378.591333
        0.835000		0.089404		167.326208		9006.076236		350.818520
        0.845000		0.076890		101.083454		7159.147727		324.259223
        0.855000		0.068225		50.061507		5986.819671		305.601166
        0.865000		0.063469		20.995629		5397.109959		296.144168
        0.875000		0.061328		7.965587		5148.141555		292.344645
        0.885000		0.060483		2.881358		5053.249375		290.965300
        0.895000		0.060171		1.020480		5018.814204		290.478191
        0.905000		0.060060		0.357637		5006.587266		290.307248
        0.915000		0.060021		0.124477		5002.291663		290.247451
        0.925000		0.060007		0.043068		5000.792665		290.226611
        0.935000		0.060002		0.014812		5000.272555		290.219380
        0.945000		0.060001		0.005062		5000.093124		290.216885
        0.955000		0.060000		0.001718		5000.031600		290.216029
        0.965000		0.060000		0.000579		5000.010645		290.215737
        0.975000		0.060000		0.000193		5000.003564		290.215638
        0.985000		0.060000		0.000062		5000.001205		290.215605
        0.995000		0.060000		0.000014		5000.000484		290.215594
