Variables = X,Ro,U,P,T
Zone i = 100
        0.005000		1.200000		0.000000		99999.999999		290.215589
        0.015000		1.200000		0.000000		99999.999997		290.215589
        0.025000		1.200000		0.000000		99999.999992		290.215589
        0.035000		1.200000		0.000000		99999.999976		290.215589
        0.045000		1.200000		0.000000		99999.999931		290.215589
        0.055000		1.200000		0.000000		99999.999800		290.215589
        0.065000		1.200000		0.000001		99999.999439		290.215588
        0.075000		1.200000		0.000004		99999.998463		290.215587
        0.085000		1.200000		0.000010		99999.995888		290.215585
        0.095000		1.200000		0.000026		99999.989274		290.215580
        0.105000		1.200000		0.000067		99999.972740		290.215566
        0.115000		1.199999		0.000165		99999.932520		290.215533
        0.125000		1.199999		0.000397		99999.837407		290.215454
        0.135000		1.199997		0.000930		99999.618893		290.215273
        0.145000		1.199993		0.002119		99999.131565		290.214869
        0.155000		1.199984		0.004691		99998.077428		290.213995
        0.165000		1.199965		0.010082		99995.867794		290.212162
        0.175000		1.199926		0.021022		99991.383666		290.208444
        0.185000		1.199851		0.042497		99982.582669		290.201146
        0.195000		1.199708		0.083222		99965.894012		290.187308
        0.205000		1.199446		0.157764		99935.353919		290.161983
        0.215000		1.198984		0.289308		99881.474638		290.117301
        0.225000		1.198198		0.512943		99789.929459		290.041368
        0.235000		1.196914		0.878883		99640.277887		289.917195
        0.245000		1.194894		1.454912		99405.078882		289.721914
        0.255000		1.191838		2.327029		99049.846554		289.426647
        0.265000		1.187396		3.597370		98534.275221		288.997336
        0.275000		1.181182		5.379053		97814.916630		288.396659
        0.285000		1.172812		7.788348		96849.113401		287.586865
        0.295000		1.161939		10.935468		95599.569967		286.533037
        0.305000		1.148285		14.915714		94038.672363		285.206165
        0.315000		1.131674		19.802644		92151.681382		283.585424
        0.325000		1.112045		25.644322		89938.220756		281.659291
        0.335000		1.089448		32.462865		87411.931545		279.425482
        0.345000		1.064040		40.256792		84598.584773		276.889902
        0.355000		1.036055		49.005245		81533.202050		274.064985
        0.365000		1.005788		58.673076		78256.790788		270.967797
        0.375000		0.973564		69.215984		74813.198348		267.618179
        0.385000		0.939724		80.585212		71246.434786		264.037126
        0.395000		0.904600		92.731334		67598.591250		260.245482
        0.405000		0.868508		105.607503		63908.375569		256.262911
        0.415000		0.831739		119.171947		60210.194975		252.107116
        0.425000		0.794547		133.390187		56533.643162		247.793192
        0.435000		0.757152		148.237394		52903.237587		243.332964
        0.445000		0.719732		163.701646		49338.224299		238.734087
        0.455000		0.682416		179.789552		45852.188564		233.998479
        0.465000		0.645266		196.537788		42451.962250		229.119065
        0.475000		0.608238		214.040779		39134.454201		224.071946
        0.485000		0.571053		232.532885		35876.310213		218.793118
        0.495000		0.532598		252.747217		32586.581617		213.079185
        0.505000		0.435562		310.213134		24617.878912		196.834915
        0.515000		0.414121		324.084991		22967.928351		193.150723
        0.525000		0.396605		335.791980		21650.990060		190.117239
        0.535000		0.382336		345.571478		20602.018717		187.657732
        0.545000		0.371245		353.282447		19807.072555		185.806775
        0.555000		0.363238		358.818327		19253.991491		184.599977
        0.565000		0.357932		362.305548		18913.871191		184.027177
        0.575000		0.354589		364.153415		18737.420377		184.029248
        0.585000		0.352244		364.928495		18665.880667		184.547160
        0.595000		0.349916		365.150844		18648.012551		185.596687
        0.605000		0.346740		365.165096		18650.481395		187.321906
        0.615000		0.341966		365.138245		18657.234738		190.005354
        0.625000		0.334950		365.124994		18662.998772		194.045405
        0.635000		0.325181		365.131046		18667.126726		199.919354
        0.645000		0.312385		365.148527		18670.143187		208.141789
        0.655000		0.296640		365.168889		18672.455210		219.217033
        0.665000		0.278428		365.184967		18674.098127		233.576402
        0.675000		0.258608		365.189568		18674.783450		251.486932
        0.685000		0.238285		365.173316		18673.945225		272.923478
        0.695000		0.218623		365.121988		18670.689857		297.418145
        0.705000		0.200646		365.012471		18663.603512		323.942201
        0.715000		0.185091		364.805882		18650.338751		350.916379
        0.725000		0.172326		364.435084		18626.860855		376.435672
        0.735000		0.162352		363.782050		18586.147383		398.689219
        0.745000		0.154859		362.640201		18515.880409		416.399058
        0.755000		0.149313		360.650231		18394.775414		429.041569
        0.765000		0.145025		357.196605		18186.974659		436.736303
        0.775000		0.141196		351.247449		17834.387725		439.883624
        0.785000		0.136918		341.124464		17248.496780		438.725636
        0.795000		0.131175		324.224305		16307.995610		432.964054
        0.805000		0.122933		296.851597		14879.483877		421.523562
        0.815000		0.111500		254.742586		12892.968866		402.698456
        0.825000		0.097305		195.717499		10490.684954		375.466210
        0.835000		0.082671		125.864734		8142.640305		343.016544
        0.845000		0.071075		63.472511		6430.404231		315.080036
        0.855000		0.064369		25.120115		5533.061384		299.355624
        0.865000		0.061485		8.489741		5175.914316		293.172431
        0.875000		0.060469		2.672490		5054.953460		291.130950
        0.885000		0.060144		0.818507		5016.791375		290.494435
        0.895000		0.060044		0.247700		5005.077846		290.299834
        0.905000		0.060013		0.074395		5001.524865		290.240880
        0.915000		0.060004		0.022199		5000.454965		290.223134
        0.925000		0.060001		0.006579		5000.134829		290.217825
        0.935000		0.060000		0.001935		5000.039662		290.216246
        0.945000		0.060000		0.000565		5000.011572		290.215781
        0.955000		0.060000		0.000163		5000.003347		290.215644
        0.965000		0.060000		0.000047		5000.000959		290.215605
        0.975000		0.060000		0.000013		5000.000272		290.215593
        0.985000		0.060000		0.000004		5000.000078		290.215590
        0.995000		0.060000		0.000001		5000.000027		290.215589
