Variables = X,Ro,U,P,T
Zone i = 100
        0.005000		1.200000		0.000000		99999.999997		290.215589
        0.015000		1.200000		0.000000		99999.999992		290.215589
        0.025000		1.200000		0.000000		99999.999978		290.215589
        0.035000		1.200000		0.000000		99999.999938		290.215589
        0.045000		1.200000		0.000000		99999.999829		290.215589
        0.055000		1.200000		0.000001		99999.999535		290.215588
        0.065000		1.200000		0.000003		99999.998761		290.215588
        0.075000		1.200000		0.000008		99999.996777		290.215586
        0.085000		1.200000		0.000020		99999.991803		290.215582
        0.095000		1.200000		0.000050		99999.979636		290.215572
        0.105000		1.200000		0.000121		99999.950608		290.215548
        0.115000		1.199999		0.000285		99999.883100		290.215492
        0.125000		1.199998		0.000658		99999.730185		290.215365
        0.135000		1.199995		0.001481		99999.393057		290.215085
        0.145000		1.199989		0.003244		99998.670220		290.214486
        0.155000		1.199976		0.006919		99997.164232		290.213237
        0.165000		1.199950		0.014351		99994.118114		290.210712
        0.175000		1.199898		0.028931		99988.142240		290.205756
        0.185000		1.199801		0.056649		99976.783022		290.196337
        0.195000		1.199622		0.107651		99955.883717		290.179007
        0.205000		1.199303		0.198400		99918.705785		290.148178
        0.215000		1.198755		0.354383		99854.828643		290.095202
        0.225000		1.197847		0.613144		99748.934076		290.007359
        0.235000		1.196394		1.027135		99579.701623		289.866919
        0.245000		1.194155		1.665612		99319.160242		289.650547
        0.255000		1.190831		2.614695		98932.899855		289.329373
        0.265000		1.186077		3.974896		98381.477612		288.869966
        0.275000		1.179522		5.855884		97623.124242		288.236263
        0.285000		1.170800		8.369032		96617.506020		287.392264
        0.295000		1.159584		11.618939		95329.947695		286.305034
        0.305000		1.145620		15.695476		93735.320815		284.947453
        0.315000		1.128746		20.667760		91820.846747		283.300207
        0.325000		1.108913		26.580924		89587.339316		281.352739
        0.335000		1.086176		33.455804		87048.802156		279.103138
        0.345000		1.060687		41.291105		84230.651780		276.557174
        0.355000		1.032677		50.067215		81167.052909		273.726779
        0.365000		1.002431		59.750811		77897.899882		270.628327
        0.375000		0.970267		70.299538		74465.894211		267.280927
        0.385000		0.936517		81.666275		70914.018976		263.704936
        0.395000		0.901509		93.802765		67283.554993		259.920723
        0.405000		0.865554		106.662574		63612.657492		255.947704
        0.415000		0.828941		120.203525		59935.427344		251.803584
        0.425000		0.791926		134.389867		56281.362236		247.503720
        0.435000		0.754732		149.194618		52675.045004		243.060454
        0.445000		0.717538		164.602805		49135.894583		238.482222
        0.455000		0.680478		180.617089		45677.724877		233.771964
        0.465000		0.643619		197.269248		42307.611825		228.923992
        0.475000		0.606924		214.647580		39022.720669		223.916091
        0.485000		0.570117		232.977484		35800.139542		218.686786
        0.495000		0.532075		252.962946		32551.331439		213.057834
        0.505000		0.478707		283.376352		28102.025045		204.441766
        0.515000		0.433889		311.011451		24522.026733		196.824712
        0.525000		0.412375		324.942262		22871.759253		193.156256
        0.535000		0.394930		336.601407		21565.731128		190.171847
        0.545000		0.380837		346.241100		20535.889306		187.791625
        0.555000		0.369953		353.759533		19763.520994		186.045807
        0.565000		0.362072		359.106857		19230.907026		184.972462
        0.575000		0.356676		362.461453		18904.691383		184.585369
        0.585000		0.352885		364.251914		18734.343263		184.887183
        0.595000		0.349588		365.025359		18663.272304		185.923275
        0.605000		0.345654		365.266016		18643.686626		187.841865
        0.615000		0.340098		365.292022		18644.671705		190.920259
        0.625000		0.332161		365.261065		18650.893078		195.547863
        0.635000		0.321359		365.229360		18656.718659		202.184074
        0.645000		0.307550		365.206733		18660.856103		211.309124
        0.655000		0.290981		365.187808		18663.308350		223.370913
        0.665000		0.272286		365.163991		18664.164025		238.718052
        0.675000		0.252407		365.125817		18663.270078		257.506246
        0.685000		0.232444		365.061643		18660.160968		279.574952
        0.695000		0.213475		364.954756		18653.967506		304.317058
        0.705000		0.196389		364.778802		18643.188448		330.602094
        0.715000		0.181774		364.490245		18625.230564		356.838670
        0.725000		0.169874		364.013960		18595.688692		381.231045
        0.735000		0.160605		363.221469		18546.929760		402.174640
        0.745000		0.153623		361.893285		18465.915985		418.616825
        0.755000		0.148395		359.658913		18330.827291		430.194230
        0.765000		0.144265		355.904383		18106.204718		437.086424
        0.775000		0.140488		349.635833		17736.794515		439.680831
        0.785000		0.136235		339.293267		17141.764655		438.197816
        0.795000		0.130602		322.539719		16214.841034		432.380143
        0.805000		0.122698		296.160796		14843.753480		421.315490
        0.815000		0.111937		256.516772		12971.693678		403.574033
        0.825000		0.098638		201.595602		10712.781195		378.234567
        0.835000		0.084646		135.778255		8448.636623		347.601129
        0.845000		0.072940		73.802791		6692.930452		319.559540
        0.855000		0.065555		31.929414		5685.058730		302.015199
        0.865000		0.062044		11.697910		5243.525558		294.325818
        0.875000		0.060691		3.940861		5081.172930		291.570235
        0.885000		0.060225		1.282453		5026.324871		290.653067
        0.895000		0.060072		0.411198		5008.431372		290.355508
        0.905000		0.060023		0.130751		5002.680023		290.260043
        0.915000		0.060007		0.041302		5000.846476		290.229627
        0.925000		0.060002		0.012962		5000.265652		290.219994
        0.935000		0.060001		0.004040		5000.082802		290.216962
        0.945000		0.060000		0.001250		5000.025619		290.216014
        0.955000		0.060000		0.000384		5000.007864		290.215719
        0.965000		0.060000		0.000117		5000.002393		290.215628
        0.975000		0.060000		0.000035		5000.000723		290.215601
        0.985000		0.060000		0.000010		5000.000221		290.215592
        0.995000		0.060000		0.000002		5000.000082		290.215590
