Variables = X,Ro,U,P,T
Zone i = 100
        0.005000		1.200000		0.000000		99999.999997		290.215589
        0.015000		1.200000		0.000000		99999.999993		290.215589
        0.025000		1.200000		0.000000		99999.999981		290.215589
        0.035000		1.200000		0.000000		99999.999946		290.215589
        0.045000		1.200000		0.000000		99999.999848		290.215589
        0.055000		1.200000		0.000001		99999.999587		290.215588
        0.065000		1.200000		0.000003		99999.998898		290.215588
        0.075000		1.200000		0.000007		99999.997125		290.215586
        0.085000		1.200000		0.000018		99999.992669		290.215583
        0.095000		1.200000		0.000045		99999.981739		290.215574
        0.105000		1.200000		0.000108		99999.955589		290.215552
        0.115000		1.199999		0.000257		99999.894594		290.215501
        0.125000		1.199998		0.000595		99999.756012		290.215386
        0.135000		1.199995		0.001343		99999.449516		290.215132
        0.145000		1.199990		0.002952		99998.790199		290.214586
        0.155000		1.199978		0.006314		99997.411869		290.213443
        0.165000		1.199954		0.013141		99994.614091		290.211123
        0.175000		1.199907		0.026582		99989.105212		290.206555
        0.185000		1.199817		0.052231		99978.593658		290.197839
        0.195000		1.199650		0.099615		99959.177263		290.181739
        0.205000		1.199353		0.184272		99924.495609		290.152979
        0.215000		1.198839		0.330391		99864.651680		290.103349
        0.225000		1.197985		0.573873		99764.999587		290.020688
        0.235000		1.196611		0.965180		99605.013062		289.887929
        0.245000		1.194485		1.571436		99357.555570		289.682446
        0.255000		1.191314		2.476767		98988.957798		289.376018
        0.265000		1.186757		3.780180		98460.260039		288.935677
        0.275000		1.180445		5.590670		97729.756682		288.325523
        0.285000		1.172009		8.020014		96756.647582		287.509341
        0.295000		1.161114		11.174347		95505.241195		286.453588
        0.305000		1.147494		15.146072		93948.927517		285.130200
        0.315000		1.130976		20.007553		92073.150888		283.518699
        0.325000		1.111491		25.807510		89876.863566		281.607275
        0.335000		1.089082		32.570381		87372.324695		279.392795
        0.345000		1.063888		40.298225		84583.476412		276.879924
        0.355000		1.036129		48.974396		81543.365210		274.079658
        0.365000		1.006081		58.568122		78291.144289		271.007602
        0.375000		0.974059		69.039226		74869.118713		267.682248
        0.385000		0.940389		80.342554		71320.168408		264.123446
        0.395000		0.905398		92.431632		67685.691770		260.351127
        0.405000		0.869398		105.261866		64004.109877		256.384290
        0.415000		0.832676		118.793085		60309.879256		252.240196
        0.425000		0.795491		132.991840		56632.900283		247.933690
        0.435000		0.758064		147.833863		52998.174081		243.476503
        0.445000		0.720577		163.307426		49425.535259		238.876315
        0.455000		0.683163		179.419086		45929.201883		234.135148
        0.465000		0.645891		196.205343		42516.632929		229.246080
        0.475000		0.608721		213.760490		39185.313709		224.185347
        0.485000		0.571376		232.319203		35912.353720		218.888962
        0.495000		0.532747		252.616915		32606.949906		213.153040
        0.505000		0.435326		310.319886		24605.438509		196.842180
        0.515000		0.413829		324.233367		22951.557694		193.149450
        0.525000		0.396278		335.968014		21632.535370		190.111982
        0.535000		0.381992		345.761757		20582.969602		187.652938
        0.545000		0.370900		353.473324		19788.719302		185.807250
        0.555000		0.362903		358.997106		19237.390680		184.611090
        0.565000		0.357610		362.462297		18899.771067		184.055307
        0.575000		0.354274		364.282409		18726.204337		184.082709
        0.585000		0.351914		365.028663		18657.555175		184.637383
        0.595000		0.349541		365.225045		18642.258616		185.738781
        0.605000		0.346280		365.218539		18646.774183		187.533444
        0.615000		0.341391		365.176669		18654.991329		190.302678
        0.625000		0.334251		365.153283		18661.690776		194.437735
        0.635000		0.324384		365.152541		18666.324829		200.401915
        0.645000		0.311555		365.164875		18669.504815		208.689367
        0.655000		0.295869		365.180099		18671.684467		219.779195
        0.665000		0.277816		365.189422		18672.899262		234.075731
        0.675000		0.258236		365.183837		18672.814626		251.822515
        0.685000		0.238193		365.151686		18670.768353		272.983064
        0.695000		0.218797		365.075601		18665.706514		297.101937
        0.705000		0.201026		364.927917		18655.964333		323.196384
        0.715000		0.185586		364.663057		18638.813473		349.764597
        0.725000		0.172832		364.204262		18609.660458		374.987948
        0.735000		0.162773		363.420209		18560.729885		397.112996
        0.745000		0.155122		362.088004		18478.805248		414.859998
        0.755000		0.149369		359.832591		18341.826109		427.645526
        0.765000		0.144852		356.033357		18113.988352		435.504696
        0.775000		0.140800		349.686389		17739.549018		438.774143
        0.785000		0.136354		339.216796		17137.068597		437.692633
        0.795000		0.130579		322.267793		16199.779779		432.052463
        0.805000		0.122560		295.605588		14815.692882		420.993562
        0.815000		0.111702		255.593593		12930.272164		403.134830
        0.825000		0.098337		200.300387		10662.948851		377.625744
        0.835000		0.084345		134.321028		8401.886232		346.911003
        0.845000		0.072715		72.602218		6660.993952		319.018399
        0.855000		0.065434		31.244369		5669.344132		301.739540
        0.865000		0.061993		11.409447		5237.392779		294.220783
        0.875000		0.060673		3.838058		5079.043178		291.534483
        0.885000		0.060219		1.248276		5025.622143		290.641365
        0.895000		0.060070		0.400158		5008.204885		290.351747
        0.905000		0.060022		0.127235		5002.607998		290.258848
        0.915000		0.060007		0.040194		5000.823800		290.229251
        0.925000		0.060002		0.012618		5000.258590		290.219877
        0.935000		0.060001		0.003934		5000.080628		290.216926
        0.945000		0.060000		0.001218		5000.024957		290.216003
        0.955000		0.060000		0.000374		5000.007664		290.215716
        0.965000		0.060000		0.000114		5000.002334		290.215627
        0.975000		0.060000		0.000034		5000.000706		290.215600
        0.985000		0.060000		0.000010		5000.000216		290.215592
        0.995000		0.060000		0.000002		5000.000081		290.215590
