Variables = X,Ro,U,P,T
Zone i = 200
        0.002500		1.200000		0.000000		100000.000000		290.215589
        0.007500		1.200000		0.000000		100000.000000		290.215589
        0.012500		1.200000		0.000000		100000.000000		290.215589
        0.017500		1.200000		0.000000		100000.000000		290.215589
        0.022500		1.200000		0.000000		100000.000000		290.215589
        0.027500		1.200000		0.000000		100000.000000		290.215589
        0.032500		1.200000		0.000000		100000.000000		290.215589
        0.037500		1.200000		0.000000		100000.000000		290.215589
        0.042500		1.200000		0.000000		100000.000000		290.215589
        0.047500		1.200000		0.000000		100000.000000		290.215589
        0.052500		1.200000		0.000000		100000.000000		290.215589
        0.057500		1.200000		0.000000		100000.000000		290.215589
        0.062500		1.200000		0.000000		100000.000000		290.215589
        0.067500		1.200000		0.000000		100000.000000		290.215589
        0.072500		1.200000		0.000000		100000.000000		290.215589
        0.077500		1.200000		0.000000		100000.000000		290.215589
        0.082500		1.200000		0.000000		100000.000000		290.215589
        0.087500		1.200000		0.000000		100000.000000		290.215589
        0.092500		1.200000		0.000000		100000.000000		290.215589
        0.097500		1.200000		0.000000		100000.000000		290.215589
        0.102500		1.200000		0.000000		100000.000000		290.215589
        0.107500		1.200000		0.000000		99999.999999		290.215589
        0.112500		1.200000		0.000000		99999.999998		290.215589
        0.117500		1.200000		0.000000		99999.999995		290.215589
        0.122500		1.200000		0.000000		99999.999988		290.215589
        0.127500		1.200000		0.000000		99999.999973		290.215589
        0.132500		1.200000		0.000000		99999.999941		290.215589
        0.137500		1.200000		0.000000		99999.999871		290.215589
        0.142500		1.200000		0.000001		99999.999720		290.215588
        0.147500		1.200000		0.000001		99999.999401		290.215588
        0.152500		1.200000		0.000003		99999.998738		290.215588
        0.157500		1.200000		0.000006		99999.997380		290.215587
        0.162500		1.200000		0.000013		99999.994638		290.215584
        0.167500		1.200000		0.000026		99999.989182		290.215580
        0.172500		1.200000		0.000052		99999.978497		290.215571
        0.177500		1.200000		0.000103		99999.957895		290.215554
        0.182500		1.199999		0.000198		99999.918797		290.215521
        0.187500		1.199999		0.000376		99999.845791		290.215461
        0.192500		1.199998		0.000703		99999.711701		290.215350
        0.197500		1.199995		0.001294		99999.469513		290.215149
        0.202500		1.199992		0.002343		99999.039492		290.214792
        0.207500		1.199985		0.004174		99998.289144		290.214170
        0.212500		1.199974		0.007312		99997.002878		290.213104
        0.217500		1.199956		0.012596		99994.837472		290.211308
        0.222500		1.199925		0.021327		99991.258726		290.208340
        0.227500		1.199875		0.035490		99985.454521		290.203528
        0.232500		1.199796		0.058023		99976.220132		290.195870
        0.237500		1.199673		0.093180		99961.813630		290.183923
        0.242500		1.199484		0.146952		99939.783025		290.165653
        0.247500		1.199201		0.227541		99906.772715		290.138274
        0.252500		1.198785		0.345860		99858.324444		290.098085
        0.257500		1.198188		0.515980		99788.691957		290.040309
        0.262500		1.197347		0.755529		99690.715532		289.958986
        0.267500		1.196189		1.085752		99555.783173		289.846929
        0.272500		1.194627		1.531448		99373.906744		289.695773
        0.277500		1.192564		2.120504		99133.953711		289.496142
        0.282500		1.189897		2.883079		98824.036001		289.237939
        0.287500		1.186519		3.850486		98432.040181		288.910739
        0.292500		1.182327		5.053848		97946.257484		288.504268
        0.297500		1.177224		6.522662		97356.051069		288.008894
        0.302500		1.171127		8.283432		96652.487248		287.416105
        0.307500		1.163971		10.358500		95828.860280		286.718899
        0.312500		1.155710		12.765208		94881.056150		285.912071
        0.317500		1.146324		15.515426		93807.725402		284.992349
        0.322500		1.135812		18.615467		92610.262574		283.958409
        0.327500		1.124195		22.066345		91292.614268		282.810764
        0.332500		1.111514		25.864292		89860.954934		281.551566
        0.337500		1.097825		30.001461		88323.277600		280.184344
        0.342500		1.083197		34.466715		86688.946507		278.713719
        0.347500		1.067705		39.246435		84968.252166		277.145121
        0.352500		1.051434		44.325277		83171.999508		275.484511
        0.357500		1.034467		49.686861		81311.149002		273.738155
        0.362500		1.016891		55.314344		79396.520728		271.912414
        0.367500		0.998789		61.190895		77438.563512		270.013594
        0.372500		0.980241		67.300063		75447.185590		268.047817
        0.377500		0.961323		73.626044		73431.639764		266.020936
        0.382500		0.942107		80.153875		71400.454382		263.938474
        0.387500		0.922658		86.869555		69361.401102		261.805586
        0.392500		0.903037		93.760116		67321.490873		259.627043
        0.397500		0.883299		100.813655		65286.990559		257.407224
        0.402500		0.863494		108.019333		63263.453778		255.150120
        0.407500		0.843665		115.367366		61255.760782		252.859344
        0.412500		0.823853		122.848991		59268.163216		250.538147
        0.417500		0.804093		130.456441		57304.330658		248.189429
        0.422500		0.784416		138.182916		55367.396435		245.815754
        0.427500		0.764849		146.022565		53460.000920		243.419361
        0.432500		0.745416		153.970483		51584.330712		241.002169
        0.437500		0.726137		162.022729		49742.152399		238.565781
        0.442500		0.707027		170.176383		47934.839177		236.111467
        0.447500		0.688101		178.429640		46163.388430		233.640144
        0.452500		0.669368		186.781997		44428.426794		231.152329
        0.457500		0.650833		195.234547		42730.197280		228.648055
        0.462500		0.632498		203.790471		41068.518263		226.126738
        0.467500		0.614359		212.455894		39442.694947		223.586938
        0.472500		0.596403		221.241379		37851.342951		221.025936
        0.477500		0.578606		230.164782		36292.033428		218.438933
        0.482500		0.560921		239.257177		34760.530589		215.817370
        0.487500		0.543256		248.576941		33248.941671		213.144946
        0.492500		0.525406		258.251132		31740.211565		210.385892
        0.497500		0.506755		268.654816		30183.987354		207.434379
        0.502500		0.454720		299.545105		25943.682921		198.696269
        0.507500		0.441161		308.010553		24875.156852		196.367811
        0.512500		0.429142		315.682339		23939.719586		194.276421
        0.517500		0.418122		322.862138		23091.858477		192.334992
        0.522500		0.407958		329.612959		22318.384679		190.523975
        0.527500		0.398630		335.921007		21615.952218		188.845288
        0.532500		0.390175		341.734263		20985.630969		187.311325
        0.537500		0.382659		346.979184		20430.685079		185.940293
        0.542500		0.376152		351.574685		19955.022140		184.752472
        0.547500		0.370716		355.449016		19561.611898		183.765830
        0.552500		0.366371		358.559718		19250.790557		182.990867
        0.557500		0.363077		360.912185		19018.788337		182.425822
        0.562500		0.360725		362.569041		18857.088392		182.054254
        0.567500		0.359145		363.643678		18753.128799		181.846788
        0.572500		0.358137		364.278239		18692.298389		181.767049
        0.577500		0.357503		364.614862		18660.470688		181.779554
        0.582500		0.357075		364.772193		18646.040981		181.856427
        0.587500		0.356731		364.834619		18640.818336		181.981058
        0.592500		0.356383		364.853727		18639.813461		182.148877
        0.597500		0.355969		364.856565		18640.415768		182.366800
        0.602500		0.355431		364.855036		18641.478896		182.652896
        0.607500		0.354707		364.853226		18642.611301		183.037076
        0.612500		0.353712		364.851925		18643.739541		183.562794
        0.617500		0.352340		364.850912		18644.887806		184.289290
        0.622500		0.350452		364.849874		18646.088636		185.293686
        0.627500		0.347888		364.848665		18647.357878		186.672307
        0.632500		0.344465		364.847310		18648.694517		188.540810
        0.637500		0.339997		364.845937		18650.086827		191.032895
        0.642500		0.334309		364.844715		18651.518102		194.297629
        0.647500		0.327265		364.843818		18652.970421		198.495490
        0.652500		0.318782		364.843404		18654.426753		203.793134
        0.657500		0.308860		364.843601		18655.871998		210.356678
        0.662500		0.297585		364.844509		18657.293457		218.342933
        0.667500		0.285143		364.846198		18658.680990		227.887719
        0.672500		0.271802		364.848712		18660.027011		239.090381
        0.677500		0.257902		364.852068		18661.326358		251.994011
        0.682500		0.243823		364.856257		18662.576015		266.562045
        0.687500		0.229957		364.861251		18663.774678		282.653867
        0.692500		0.216671		364.866989		18664.922091		300.004676
        0.697500		0.204282		364.873379		18666.018076		318.217339
        0.702500		0.193036		364.880285		18667.060817		336.774628
        0.707500		0.183095		364.887545		18668.041760		355.077469
        0.712500		0.174537		364.894773		18668.953854		372.507805
        0.717500		0.167357		364.901434		18669.775555		388.504931
        0.722500		0.161489		364.906713		18670.464523		402.637044
        0.727500		0.156815		364.909288		18670.946823		414.648902
        0.732500		0.153187		364.906990		18671.096091		424.474136
        0.737500		0.150441		364.896248		18670.698885		432.212890
        0.742500		0.148413		364.871140		18669.396990		438.085824
        0.747500		0.146951		364.821833		18666.591503		442.379719
        0.752500		0.145914		364.731980		18661.283900		445.397704
        0.757500		0.145180		364.574445		18651.814887		447.421419
        0.762500		0.144643		364.304278		18635.437841		448.686539
        0.767500		0.144208		363.847089		18607.618208		449.368821
        0.772500		0.143780		363.080272		18560.915539		449.576123
        0.777500		0.143253		361.802486		18483.207185		449.340475
        0.782500		0.142492		359.684764		18354.948594		448.604396
        0.787500		0.141308		356.193522		18145.141182		447.194800
        0.792500		0.139420		350.473124		17805.919863		444.776862
        0.797500		0.136424		341.177731		17266.696322		440.779913
        0.802500		0.131766		326.262930		16431.732565		434.293486
        0.807500		0.124789		302.826914		15191.529761		423.962996
        0.812500		0.114952		267.326139		13468.150485		408.031171
        0.817500		0.102345		217.012336		11313.997799		384.991458
        0.822500		0.088380		153.861712		9027.332663		355.717857
        0.827500		0.075837		89.577259		7107.684526		326.400777
        0.832500		0.067225		41.488999		5903.253305		305.816613
        0.837500		0.062785		15.958353		5334.238631		295.880681
        0.842500		0.060971		5.544338		5114.449259		292.129311
        0.847500		0.060324		1.847489		5037.951772		290.846734
        0.852500		0.060107		0.606472		5012.438558		290.422057
        0.857500		0.060035		0.198040		5004.059638		290.282933
        0.862500		0.060011		0.064535		5001.322738		290.237527
        0.867500		0.060004		0.021011		5000.430606		290.222730
        0.872500		0.060001		0.006836		5000.140091		290.217912
        0.877500		0.060000		0.002222		5000.045547		290.216344
        0.882500		0.060000		0.000722		5000.014798		290.215834
        0.887500		0.060000		0.000234		5000.004804		290.215668
        0.892500		0.060000		0.000076		5000.001558		290.215615
        0.897500		0.060000		0.000025		5000.000505		290.215597
        0.902500		0.060000		0.000008		5000.000163		290.215591
        0.907500		0.060000		0.000003		5000.000053		290.215590
        0.912500		0.060000		0.000001		5000.000017		290.215589
        0.917500		0.060000		0.000000		5000.000005		290.215589
        0.922500		0.060000		0.000000		5000.000002		290.215589
        0.927500		0.060000		0.000000		5000.000001		290.215589
        0.932500		0.060000		0.000000		5000.000000		290.215589
        0.937500		0.060000		0.000000		5000.000000		290.215589
        0.942500		0.060000		0.000000		5000.000000		290.215589
        0.947500		0.060000		0.000000		5000.000000		290.215589
        0.952500		0.060000		0.000000		5000.000000		290.215589
        0.957500		0.060000		0.000000		5000.000000		290.215589
        0.962500		0.060000		0.000000		5000.000000		290.215589
        0.967500		0.060000		0.000000		5000.000000		290.215589
        0.972500		0.060000		0.000000		5000.000000		290.215589
        0.977500		0.060000		0.000000		5000.000000		290.215589
        0.982500		0.060000		0.000000		5000.000000		290.215589
        0.987500		0.060000		0.000000		5000.000000		290.215589
        0.992500		0.060000		0.000000		5000.000000		290.215589
        0.997500		0.060000		0.000000		5000.000000		290.215589
