Variables = X,Ro,U,P,T
Zone i = 400
        0.001250		1.200000		0.000000		100000.000000		290.215589
        0.003750		1.200000		0.000000		100000.000000		290.215589
        0.006250		1.200000		0.000000		100000.000000		290.215589
        0.008750		1.200000		0.000000		100000.000000		290.215589
        0.011250		1.200000		0.000000		100000.000000		290.215589
        0.013750		1.200000		0.000000		100000.000000		290.215589
        0.016250		1.200000		0.000000		100000.000000		290.215589
        0.018750		1.200000		0.000000		100000.000000		290.215589
        0.021250		1.200000		0.000000		100000.000000		290.215589
        0.023750		1.200000		0.000000		100000.000000		290.215589
        0.026250		1.200000		0.000000		100000.000000		290.215589
        0.028750		1.200000		0.000000		100000.000000		290.215589
        0.031250		1.200000		0.000000		100000.000000		290.215589
        0.033750		1.200000		0.000000		100000.000000		290.215589
        0.036250		1.200000		0.000000		100000.000000		290.215589
        0.038750		1.200000		0.000000		100000.000000		290.215589
        0.041250		1.200000		0.000000		100000.000000		290.215589
        0.043750		1.200000		0.000000		100000.000000		290.215589
        0.046250		1.200000		0.000000		100000.000000		290.215589
        0.048750		1.200000		0.000000		100000.000000		290.215589
        0.051250		1.200000		0.000000		100000.000000		290.215589
        0.053750		1.200000		0.000000		100000.000000		290.215589
        0.056250		1.200000		0.000000		100000.000000		290.215589
        0.058750		1.200000		0.000000		100000.000000		290.215589
        0.061250		1.200000		0.000000		100000.000000		290.215589
        0.063750		1.200000		0.000000		100000.000000		290.215589
        0.066250		1.200000		0.000000		100000.000000		290.215589
        0.068750		1.200000		0.000000		100000.000000		290.215589
        0.071250		1.200000		0.000000		100000.000000		290.215589
        0.073750		1.200000		0.000000		100000.000000		290.215589
        0.076250		1.200000		0.000000		100000.000000		290.215589
        0.078750		1.200000		0.000000		100000.000000		290.215589
        0.081250		1.200000		0.000000		100000.000000		290.215589
        0.083750		1.200000		0.000000		100000.000000		290.215589
        0.086250		1.200000		0.000000		100000.000000		290.215589
        0.088750		1.200000		0.000000		100000.000000		290.215589
        0.091250		1.200000		0.000000		100000.000000		290.215589
        0.093750		1.200000		0.000000		100000.000000		290.215589
        0.096250		1.200000		0.000000		100000.000000		290.215589
        0.098750		1.200000		0.000000		100000.000000		290.215589
        0.101250		1.200000		0.000000		100000.000000		290.215589
        0.103750		1.200000		0.000000		100000.000000		290.215589
        0.106250		1.200000		0.000000		100000.000000		290.215589
        0.108750		1.200000		0.000000		100000.000000		290.215589
        0.111250		1.200000		0.000000		100000.000000		290.215589
        0.113750		1.200000		0.000000		100000.000000		290.215589
        0.116250		1.200000		0.000000		100000.000000		290.215589
        0.118750		1.200000		0.000000		100000.000000		290.215589
        0.121250		1.200000		0.000000		100000.000000		290.215589
        0.123750		1.200000		0.000000		100000.000000		290.215589
        0.126250		1.200000		0.000000		100000.000000		290.215589
        0.128750		1.200000		0.000000		100000.000000		290.215589
        0.131250		1.200000		0.000000		100000.000000		290.215589
        0.133750		1.200000		0.000000		100000.000000		290.215589
        0.136250		1.200000		0.000000		100000.000000		290.215589
        0.138750		1.200000		0.000000		100000.000000		290.215589
        0.141250		1.200000		0.000000		100000.000000		290.215589
        0.143750		1.200000		0.000000		100000.000000		290.215589
        0.146250		1.200000		0.000000		100000.000000		290.215589
        0.148750		1.200000		0.000000		100000.000000		290.215589
        0.151250		1.200000		0.000000		100000.000000		290.215589
        0.153750		1.200000		0.000000		100000.000000		290.215589
        0.156250		1.200000		0.000000		100000.000000		290.215589
        0.158750		1.200000		0.000000		100000.000000		290.215589
        0.161250		1.200000		0.000000		100000.000000		290.215589
        0.163750		1.200000		0.000000		100000.000000		290.215589
        0.166250		1.200000		0.000000		100000.000000		290.215589
        0.168750		1.200000		0.000000		100000.000000		290.215589
        0.171250		1.200000		0.000000		100000.000000		290.215589
        0.173750		1.200000		0.000000		100000.000000		290.215589
        0.176250		1.200000		0.000000		100000.000000		290.215589
        0.178750		1.200000		0.000000		99999.999999		290.215589
        0.181250		1.200000		0.000000		99999.999999		290.215589
        0.183750		1.200000		0.000000		99999.999997		290.215589
        0.186250		1.200000		0.000000		99999.999995		290.215589
        0.188750		1.200000		0.000000		99999.999990		290.215589
        0.191250		1.200000		0.000000		99999.999982		290.215589
        0.193750		1.200000		0.000000		99999.999967		290.215589
        0.196250		1.200000		0.000000		99999.999940		290.215589
        0.198750		1.200000		0.000000		99999.999892		290.215589
        0.201250		1.200000		0.000000		99999.999805		290.215589
        0.203750		1.200000		0.000001		99999.999653		290.215588
        0.206250		1.200000		0.000001		99999.999386		290.215588
        0.208750		1.200000		0.000003		99999.998924		290.215588
        0.211250		1.200000		0.000005		99999.998130		290.215587
        0.213750		1.200000		0.000008		99999.996778		290.215586
        0.216250		1.200000		0.000013		99999.994497		290.215584
        0.218750		1.200000		0.000023		99999.990685		290.215581
        0.221250		1.200000		0.000038		99999.984371		290.215576
        0.223750		1.200000		0.000063		99999.974011		290.215567
        0.226250		1.200000		0.000104		99999.957173		290.215553
        0.228750		1.199999		0.000171		99999.930068		290.215531
        0.231250		1.199999		0.000276		99999.886853		290.215495
        0.233750		1.199998		0.000443		99999.818624		290.215438
        0.236250		1.199998		0.000703		99999.711959		290.215350
        0.238750		1.199996		0.001106		99999.546862		290.215213
        0.241250		1.199994		0.001723		99999.293890		290.215003
        0.243750		1.199991		0.002659		99998.910208		290.214685
        0.246250		1.199986		0.004064		99998.334254		290.214208
        0.248750		1.199978		0.006151		99997.478666		290.213498
        0.251250		1.199968		0.009220		99996.221044		290.212455
        0.253750		1.199952		0.013682		99994.392152		290.210939
        0.256250		1.199929		0.020101		99991.761142		290.208757
        0.258750		1.199897		0.029236		99988.017490		290.205653
        0.261250		1.199852		0.042090		99982.749441		290.201284
        0.263750		1.199789		0.059978		99975.419032		290.195205
        0.266250		1.199703		0.084589		99965.334071		290.186842
        0.268750		1.199585		0.118064		99951.617882		290.175467
        0.271250		1.199427		0.163075		99933.178157		290.160173
        0.273750		1.199217		0.222892		99908.676805		290.139849
        0.276250		1.198941		0.301459		99876.503241		290.113158
        0.278750		1.198583		0.403441		99834.754018		290.078516
        0.281250		1.198124		0.534259		99781.221824		290.034086
        0.283750		1.197542		0.700081		99713.392665		289.977772
        0.286250		1.196813		0.907849		99628.467902		289.907236
        0.288750		1.195911		1.165095		99523.401859		289.819924
        0.291250		1.194808		1.479913		99394.948268		289.713108
        0.293750		1.193474		1.860783		99239.730431		289.583931
        0.296250		1.191880		2.316383		99054.326116		289.429478
        0.298750		1.189997		2.855377		98835.362645		289.246849
        0.301250		1.187795		3.486191		98579.617435		289.033236
        0.303750		1.185248		4.216788		98284.118001		288.786000
        0.306250		1.182333		5.054457		97946.235216		288.502743
        0.308750		1.179029		6.005632		97563.764048		288.181373
        0.311250		1.175321		7.075736		97134.987124		287.820151
        0.313750		1.171196		8.269083		96658.717958		287.417728
        0.316250		1.166646		9.588815		96134.322402		286.973164
        0.318750		1.161670		11.036890		95561.718576		286.485930
        0.321250		1.156268		12.614108		94941.357063		285.955897
        0.323750		1.150446		14.320176		94274.184304		285.383312
        0.326250		1.144214		16.153802		93561.592863		284.768764
        0.328750		1.137585		18.112804		92805.362553		284.113143
        0.331250		1.130574		20.194240		92007.596346		283.417599
        0.333750		1.123199		22.394534		91170.654632		282.683492
        0.336250		1.115480		24.709603		90297.090842		281.912350
        0.338750		1.107437		27.134988		89389.590799		281.105823
        0.341250		1.099093		29.665958		88450.917452		280.265647
        0.343750		1.090469		32.297617		87483.862093		279.393607
        0.346250		1.081588		35.024992		86491.202565		278.491506
        0.348750		1.072472		37.843106		85475.668475		277.561142
        0.351250		1.063141		40.747041		84439.913212		276.604284
        0.353750		1.053617		43.731991		83386.492250		275.622656
        0.356250		1.043920		46.793295		82317.847082		274.617928
        0.358750		1.034068		49.926470		81236.294073		273.591698
        0.361250		1.024080		53.127232		80144.017515		272.545496
        0.363750		1.013974		56.391505		79043.066168		271.480770
        0.366250		1.003764		59.715434		77935.352632		270.398892
        0.368750		0.993466		63.095383		76822.654942		269.301151
        0.371250		0.983095		66.527937		75706.619898		268.188760
        0.373750		0.972662		70.009894		74588.767670		267.062851
        0.376250		0.962181		73.538264		73470.497298		265.924485
        0.378750		0.951662		77.110255		72353.092796		264.774649
        0.381250		0.941116		80.723269		71237.729602		263.614263
        0.383750		0.930553		84.374889		70125.481187		262.444181
        0.386250		0.919980		88.062872		69017.325655		261.265198
        0.388750		0.909408		91.785135		67914.152238		260.078049
        0.391250		0.898842		95.539748		66816.767588		258.883419
        0.393750		0.888290		99.324923		65725.901820		257.681939
        0.396250		0.877757		103.139005		64642.214241		256.474197
        0.398750		0.867251		106.980463		63566.298768		255.260736
        0.401250		0.856776		110.847882		62498.689004		254.042057
        0.403750		0.846337		114.739953		61439.862977		252.818626
        0.406250		0.835938		118.655470		60390.247554		251.590873
        0.408750		0.825583		122.593317		59350.222514		250.359195
        0.411250		0.815277		126.552467		58320.124316		249.123960
        0.413750		0.805021		130.531975		57300.249561		247.885507
        0.416250		0.794820		134.530970		56290.858165		246.644149
        0.418750		0.784677		138.548654		55292.176289		245.400173
        0.421250		0.774593		142.584297		54304.398976		244.153846
        0.423750		0.764571		146.637230		53327.692569		242.905412
        0.426250		0.754612		150.706845		52362.196921		241.655093
        0.428750		0.744720		154.792594		51408.027349		240.403093
        0.431250		0.734894		158.893981		50465.276418		239.149597
        0.433750		0.725138		163.010567		49534.015538		237.894773
        0.436250		0.715451		167.141963		48614.296328		236.638771
        0.438750		0.705836		171.287834		47706.151844		235.381724
        0.441250		0.696292		175.447898		46809.597607		234.123747
        0.443750		0.686821		179.621925		45924.632425		232.864939
        0.446250		0.677423		183.809742		45051.239037		231.605382
        0.448750		0.668099		188.011234		44189.384531		230.345139
        0.451250		0.658849		192.226350		43339.020521		229.084253
        0.453750		0.649673		196.455107		42500.083045		227.822748
        0.456250		0.640571		200.697601		41672.492105		226.560622
        0.458750		0.631542		204.954018		40856.150817		225.297849
        0.461250		0.622587		209.224648		40050.943970		224.034371
        0.463750		0.613704		213.509904		39256.735891		222.770094
        0.466250		0.604893		217.810354		38473.367314		221.504881
        0.468750		0.596153		222.126758		37700.650820		220.238539
        0.471250		0.587480		226.460119		36938.364291		218.970805
        0.473750		0.578874		230.811762		36186.241275		217.701327
        0.476250		0.570332		235.183447		35443.956705		216.429628
        0.478750		0.561848		239.577534		34711.104982		215.155060
        0.481250		0.553418		243.997253		33987.165385		213.876732
        0.483750		0.545034		248.447137		33271.444842		212.593383
        0.486250		0.536686		252.933777		32562.977942		211.303171
        0.488750		0.528356		257.467235		31860.338941		210.003275
        0.491250		0.520017		262.063952		31161.252112		208.689067
        0.493750		0.511619		266.753648		30461.664228		207.352166
        0.496250		0.503059		271.599533		29753.011788		205.974711
        0.498750		0.494028		276.785938		29010.313394		204.504556
        0.501250		0.467010		292.805213		26815.884683		199.971390
        0.503750		0.459314		297.491985		26201.458068		198.663240
        0.506250		0.452309		301.811318		25645.942461		197.462779
        0.508750		0.445676		305.949680		25123.216773		196.316948
        0.511250		0.439307		309.969103		24624.297970		195.208010
        0.513750		0.433154		313.896152		24145.086144		194.128298
        0.516250		0.427192		317.742607		23683.495670		193.074325
        0.518750		0.421412		321.512457		23238.474114		192.044799
        0.521250		0.415811		325.204736		22809.593472		191.039803
        0.523750		0.410391		328.814787		22396.859356		190.060436
        0.526250		0.405159		332.334824		22000.615969		189.108640
        0.528750		0.400127		335.754168		21621.496486		188.187129
        0.531250		0.395309		339.059339		21260.394096		187.299355
        0.533750		0.390724		342.234139		20918.438657		186.449478
        0.536250		0.386392		345.259831		20596.967396		185.642320
        0.538750		0.382337		348.115528		20297.478963		184.883250
        0.541250		0.378584		350.778915		20021.560576		184.178003
        0.543750		0.375157		353.227406		19770.779536		183.532367
        0.546250		0.372079		355.439805		19546.534807		182.951756
        0.548750		0.369367		357.398422		19349.872990		182.440652
        0.551250		0.367032		359.091464		19181.286128		182.001983
        0.553750		0.365071		360.515306		19040.524109		181.636530
        0.556250		0.363473		361.676130		18926.466247		181.342493
        0.558750		0.362210		362.590389		18837.097091		181.115377
        0.561250		0.361246		363.283765		18769.614496		180.948261
        0.563750		0.360535		363.788663		18720.664609		180.832463
        0.566250		0.360027		364.140738		18686.660081		180.758460
        0.568750		0.359675		364.375234		18664.111676		180.716857
        0.571250		0.359437		364.523937		18649.902489		180.699200
        0.573750		0.359275		364.613252		18641.458039		180.698485
        0.576250		0.359164		364.663516		18636.801684		180.709346
        0.578750		0.359083		364.689340		18634.516264		180.727958
        0.581250		0.359019		364.700559		18633.649002		180.751791
        0.583750		0.358963		364.703402		18633.596644		180.779293
        0.586250		0.358911		364.701607		18633.997644		180.809602
        0.588750		0.358858		364.697308		18634.645352		180.842308
        0.591250		0.358804		364.691686		18635.425668		180.877285
        0.593750		0.358746		364.685387		18636.276329		180.914598
        0.596250		0.358684		364.678771		18637.162511		180.954440
        0.598750		0.358617		364.672056		18638.063344		180.997126
        0.601250		0.358543		364.665387		18638.965041		181.043103
        0.603750		0.358462		364.658867		18639.857669		181.092985
        0.606250		0.358371		364.652575		18640.733734		181.147624
        0.608750		0.358267		364.646573		18641.587580		181.208195
        0.611250		0.358148		364.640905		18642.415087		181.276323
        0.613750		0.358010		364.635601		18643.213468		181.354251
        0.616250		0.357845		364.630681		18643.981074		181.445058
        0.618750		0.357647		364.626153		18644.717207		181.552926
        0.621250		0.357403		364.622020		18645.421929		181.683472
        0.623750		0.357101		364.618277		18646.095886		181.844131
        0.626250		0.356720		364.614913		18646.740160		182.044588
        0.628750		0.356237		364.611918		18647.356128		182.297243
        0.631250		0.355623		364.609275		18647.945353		182.617681
        0.633750		0.354842		364.606969		18648.509495		183.025133
        0.636250		0.353852		364.604983		18649.050233		183.542872
        0.638750		0.352602		364.603301		18649.569212		184.198534
        0.641250		0.351038		364.601906		18650.067996		185.024318
        0.643750		0.349098		364.600781		18650.548035		186.057053
        0.646250		0.346719		364.599911		18651.010643		187.338107
        0.648750		0.343837		364.599282		18651.456983		188.913146
        0.651250		0.340388		364.598880		18651.888064		190.831740
        0.653750		0.336316		364.598691		18652.304736		193.146821
        0.656250		0.331572		364.598704		18652.707700		195.913994
        0.658750		0.326125		364.598907		18653.097522		199.190697
        0.661250		0.319956		364.599290		18653.474651		203.035184
        0.663750		0.313070		364.599842		18653.839441		207.505272
        0.666250		0.305492		364.600555		18654.192176		212.656811
        0.668750		0.297271		364.601420		18654.533098		218.541773
        0.671250		0.288479		364.602428		18654.862435		225.205883
        0.673750		0.279210		364.603573		18655.180428		232.685716
        0.676250		0.269577		364.604848		18655.487354		241.005238
        0.678750		0.259703		364.606247		18655.783547		250.171804
        0.681250		0.249725		364.607764		18656.069416		260.171793
        0.683750		0.239780		364.609394		18656.345453		270.966171
        0.686250		0.230005		364.611132		18656.612243		282.486465
        0.688750		0.220527		364.612974		18656.870459		294.631810
        0.691250		0.211461		364.614918		18657.120862		307.267850
        0.693750		0.202905		364.616960		18657.364286		320.228275
        0.696250		0.194938		364.619099		18657.601614		333.319604
        0.698750		0.187618		364.621339		18657.833377		346.329441
        0.701250		0.180979		364.623673		18658.060932		359.037843
        0.703750		0.175037		364.626098		18658.285481		371.230785
        0.706250		0.169787		364.628616		18658.507977		382.714140
        0.708750		0.165208		364.631226		18658.729364		393.326305
        0.711250		0.161265		364.633930		18658.950566		402.947720
        0.713750		0.157913		364.636732		18659.172479		411.506037
        0.716250		0.155099		364.639632		18659.395965		418.976509
        0.718750		0.152767		364.642636		18659.621842		425.377987
        0.721250		0.150858		364.645745		18659.850891		430.765603
        0.723750		0.149316		364.648964		18660.083850		435.221540
        0.726250		0.148085		364.652298		18660.321419		438.845316
        0.728750		0.147114		364.655751		18660.564260		441.744742
        0.731250		0.146360		364.659328		18660.813003		444.028343
        0.733750		0.145780		364.663036		18661.068237		445.799609
        0.736250		0.145341		364.666879		18661.330509		447.153113
        0.738750		0.145013		364.670863		18661.600306		448.172303
        0.741250		0.144770		364.674991		18661.878029		448.928647
        0.743750		0.144595		364.679267		18662.163931		449.481789
        0.746250		0.144469		364.683688		18662.458027		449.880362
        0.748750		0.144380		364.688248		18662.759922		450.163200
        0.751250		0.144319		364.692926		18663.068537		450.360712
        0.753750		0.144278		364.697687		18663.381640		450.496273
        0.756250		0.144252		364.702462		18663.695073		450.587538
        0.758750		0.144235		364.707131		18664.001460		450.647598
        0.761250		0.144225		364.711484		18664.288064		450.685976
        0.763750		0.144219		364.715169		18664.533232		450.709436
        0.766250		0.144216		364.717593		18664.700508		450.722621
        0.768750		0.144214		364.717759		18664.728868		450.728513
        0.771250		0.144213		364.714011		18664.516531		450.728739
        0.773750		0.144209		364.703590		18663.894166		450.723693
        0.776250		0.144203		364.681911		18662.580506		450.712461
        0.778750		0.144190		364.641370		18660.108890		450.692481
        0.781250		0.144167		364.569354		18655.705762		450.658818
        0.783750		0.144126		364.444955		18648.089993		450.602859
        0.786250		0.144056		364.233601		18635.145516		450.510116
        0.788750		0.143936		363.878037		18613.376208		450.356355
        0.791250		0.143737		363.283647		18577.025539		450.101436
        0.793750		0.143404		362.294337		18516.654782		449.678980
        0.796250		0.142854		360.653315		18416.894976		448.979459
        0.798750		0.141948		357.940166		18253.011985		447.822723
        0.801250		0.140470		353.472206		17985.981957		445.914048
        0.803750		0.138087		346.156591		17556.313282		442.775879
        0.806250		0.134312		334.288309		16878.719170		437.648545
        0.808750		0.128515		315.333881		15844.562500		429.368331
        0.811250		0.120032		285.890989		14348.248005		416.297784
        0.813750		0.108554		242.412133		12362.311219		396.601381
        0.816250		0.094813		183.939175		10063.004448		369.623753
        0.818750		0.081110		117.477244		7894.444394		338.960283
        0.821250		0.070460		59.854915		6341.734513		313.451436
        0.823750		0.064274		24.532411		5520.332300		299.110617
        0.826250		0.061529		8.739504		5181.187960		293.258860
        0.828750		0.060513		2.922414		5060.116912		291.216951
        0.831250		0.060168		0.954776		5019.590834		290.540949
        0.833750		0.060054		0.309493		5006.345200		290.320865
        0.836250		0.060018		0.100059		5002.050929		290.249606
        0.838750		0.060006		0.032322		5000.662451		290.226575
        0.841250		0.060002		0.010438		5000.213926		290.219136
        0.843750		0.060001		0.003371		5000.069078		290.216734
        0.846250		0.060000		0.001088		5000.022305		290.215959
        0.848750		0.060000		0.000351		5000.007202		290.215708
        0.851250		0.060000		0.000113		5000.002325		290.215627
        0.853750		0.060000		0.000037		5000.000751		290.215601
        0.856250		0.060000		0.000012		5000.000242		290.215593
        0.858750		0.060000		0.000004		5000.000078		290.215590
        0.861250		0.060000		0.000001		5000.000025		290.215589
        0.863750		0.060000		0.000000		5000.000008		290.215589
        0.866250		0.060000		0.000000		5000.000003		290.215589
        0.868750		0.060000		0.000000		5000.000001		290.215589
        0.871250		0.060000		0.000000		5000.000000		290.215589
        0.873750		0.060000		0.000000		5000.000000		290.215589
        0.876250		0.060000		0.000000		5000.000000		290.215589
        0.878750		0.060000		0.000000		5000.000000		290.215589
        0.881250		0.060000		0.000000		5000.000000		290.215589
        0.883750		0.060000		0.000000		5000.000000		290.215589
        0.886250		0.060000		0.000000		5000.000000		290.215589
        0.888750		0.060000		0.000000		5000.000000		290.215589
        0.891250		0.060000		0.000000		5000.000000		290.215589
        0.893750		0.060000		0.000000		5000.000000		290.215589
        0.896250		0.060000		0.000000		5000.000000		290.215589
        0.898750		0.060000		0.000000		5000.000000		290.215589
        0.901250		0.060000		0.000000		5000.000000		290.215589
        0.903750		0.060000		0.000000		5000.000000		290.215589
        0.906250		0.060000		0.000000		5000.000000		290.215589
        0.908750		0.060000		0.000000		5000.000000		290.215589
        0.911250		0.060000		0.000000		5000.000000		290.215589
        0.913750		0.060000		0.000000		5000.000000		290.215589
        0.916250		0.060000		0.000000		5000.000000		290.215589
        0.918750		0.060000		0.000000		5000.000000		290.215589
        0.921250		0.060000		0.000000		5000.000000		290.215589
        0.923750		0.060000		0.000000		5000.000000		290.215589
        0.926250		0.060000		0.000000		5000.000000		290.215589
        0.928750		0.060000		0.000000		5000.000000		290.215589
        0.931250		0.060000		0.000000		5000.000000		290.215589
        0.933750		0.060000		0.000000		5000.000000		290.215589
        0.936250		0.060000		0.000000		5000.000000		290.215589
        0.938750		0.060000		0.000000		5000.000000		290.215589
        0.941250		0.060000		0.000000		5000.000000		290.215589
        0.943750		0.060000		0.000000		5000.000000		290.215589
        0.946250		0.060000		0.000000		5000.000000		290.215589
        0.948750		0.060000		0.000000		5000.000000		290.215589
        0.951250		0.060000		0.000000		5000.000000		290.215589
        0.953750		0.060000		0.000000		5000.000000		290.215589
        0.956250		0.060000		0.000000		5000.000000		290.215589
        0.958750		0.060000		0.000000		5000.000000		290.215589
        0.961250		0.060000		0.000000		5000.000000		290.215589
        0.963750		0.060000		0.000000		5000.000000		290.215589
        0.966250		0.060000		0.000000		5000.000000		290.215589
        0.968750		0.060000		0.000000		5000.000000		290.215589
        0.971250		0.060000		0.000000		5000.000000		290.215589
        0.973750		0.060000		0.000000		5000.000000		290.215589
        0.976250		0.060000		0.000000		5000.000000		290.215589
        0.978750		0.060000		0.000000		5000.000000		290.215589
        0.981250		0.060000		0.000000		5000.000000		290.215589
        0.983750		0.060000		0.000000		5000.000000		290.215589
        0.986250		0.060000		0.000000		5000.000000		290.215589
        0.988750		0.060000		0.000000		5000.000000		290.215589
        0.991250		0.060000		0.000000		5000.000000		290.215589
        0.993750		0.060000		0.000000		5000.000000		290.215589
        0.996250		0.060000		0.000000		5000.000000		290.215589
        0.998750		0.060000		0.000000		5000.000000		290.215589
