Variables = X,Ro,U,P,T,M
Zone i = 200
        0.002500		1.000000		0.000000		1.000000		0.003483		0.000000
        0.007500		1.000000		0.000000		1.000000		0.003483		0.000000
        0.012500		1.000000		0.000000		0.999999		0.003483		0.000000
        0.017500		0.999999		0.000001		0.999999		0.003483		0.000001
        0.022500		0.999999		0.000001		0.999998		0.003483		0.000001
        0.027500		0.999998		0.000002		0.999997		0.003483		0.000002
        0.032500		0.999997		0.000003		0.999996		0.003483		0.000003
        0.037500		0.999995		0.000006		0.999993		0.003483		0.000005
        0.042500		0.999993		0.000009		0.999990		0.003483		0.000007
        0.047500		0.999988		0.000014		0.999984		0.003483		0.000012
        0.052500		0.999982		0.000022		0.999974		0.003483		0.000018
        0.057500		0.999972		0.000033		0.999961		0.003483		0.000028
        0.062500		0.999958		0.000050		0.999941		0.003483		0.000042
        0.067500		0.999936		0.000075		0.999911		0.003482		0.000064
        0.072500		0.999905		0.000112		0.999867		0.003482		0.000095
        0.077500		0.999861		0.000164		0.999805		0.003482		0.000139
        0.082500		0.999798		0.000239		0.999718		0.003482		0.000202
        0.087500		0.999711		0.000342		0.999595		0.003482		0.000289
        0.092500		0.999589		0.000486		0.999425		0.003482		0.000411
        0.097500		0.999425		0.000681		0.999194		0.003482		0.000576
        0.102500		0.999203		0.000944		0.998884		0.003481		0.000798
        0.107500		0.998908		0.001293		0.998472		0.003481		0.001093
        0.112500		0.998522		0.001750		0.997932		0.003481		0.001479
        0.117500		0.998023		0.002341		0.997234		0.003480		0.001979
        0.122500		0.997386		0.003095		0.996343		0.003479		0.002617
        0.127500		0.996585		0.004045		0.995223		0.003478		0.003421
        0.132500		0.995589		0.005227		0.993831		0.003476		0.004421
        0.137500		0.994367		0.006677		0.992126		0.003475		0.005649
        0.142500		0.992888		0.008434		0.990062		0.003473		0.007139
        0.147500		0.991120		0.010538		0.987596		0.003470		0.008922
        0.152500		0.989032		0.013026		0.984687		0.003467		0.011033
        0.157500		0.986595		0.015933		0.981296		0.003464		0.013502
        0.162500		0.983784		0.019294		0.977389		0.003460		0.016360
        0.167500		0.980578		0.023136		0.972938		0.003455		0.019630
        0.172500		0.976959		0.027483		0.967923		0.003450		0.023336
        0.177500		0.972915		0.032355		0.962328		0.003445		0.027495
        0.182500		0.968440		0.037765		0.956149		0.003438		0.032122
        0.187500		0.963531		0.043719		0.949386		0.003431		0.037224
        0.192500		0.958194		0.050222		0.942048		0.003424		0.042807
        0.197500		0.952434		0.057268		0.934149		0.003416		0.048872
        0.202500		0.946264		0.064853		0.925712		0.003407		0.055416
        0.207500		0.939701		0.072963		0.916761		0.003398		0.062432
        0.212500		0.932762		0.081586		0.907326		0.003388		0.069912
        0.217500		0.925469		0.090703		0.897441		0.003377		0.077846
        0.222500		0.917843		0.100295		0.887139		0.003366		0.086219
        0.227500		0.909908		0.110342		0.876458		0.003355		0.095019
        0.232500		0.901688		0.120823		0.865434		0.003343		0.104231
        0.237500		0.893208		0.131715		0.854103		0.003330		0.113839
        0.242500		0.884491		0.142996		0.842501		0.003317		0.123829
        0.247500		0.875561		0.154645		0.830664		0.003304		0.134184
        0.252500		0.866440		0.166640		0.818624		0.003290		0.144891
        0.257500		0.857150		0.178960		0.806414		0.003276		0.155934
        0.262500		0.847712		0.191585		0.794063		0.003262		0.167299
        0.267500		0.838145		0.204497		0.781600		0.003248		0.178974
        0.272500		0.828468		0.217678		0.769052		0.003233		0.190946
        0.277500		0.818697		0.231111		0.756441		0.003218		0.203203
        0.282500		0.808850		0.244780		0.743792		0.003202		0.215734
        0.287500		0.798940		0.258669		0.731125		0.003187		0.228529
        0.292500		0.788981		0.272766		0.718458		0.003171		0.241579
        0.297500		0.778987		0.287058		0.705810		0.003155		0.254875
        0.302500		0.768968		0.301532		0.693195		0.003139		0.268408
        0.307500		0.758936		0.316178		0.680629		0.003123		0.282172
        0.312500		0.748901		0.330984		0.668124		0.003107		0.296160
        0.317500		0.738870		0.345943		0.655691		0.003091		0.310366
        0.322500		0.728853		0.361045		0.643342		0.003074		0.324785
        0.327500		0.718857		0.376281		0.631085		0.003057		0.339411
        0.332500		0.708890		0.391646		0.618930		0.003041		0.354240
        0.337500		0.698956		0.407131		0.606883		0.003024		0.369269
        0.342500		0.689061		0.422731		0.594951		0.003007		0.384493
        0.347500		0.679212		0.438439		0.583140		0.002990		0.399910
        0.352500		0.669413		0.454252		0.571455		0.002973		0.415517
        0.357500		0.659666		0.470163		0.559901		0.002956		0.431311
        0.362500		0.649978		0.486169		0.548482		0.002939		0.447292
        0.367500		0.640350		0.502265		0.537200		0.002922		0.463457
        0.372500		0.630787		0.518449		0.526059		0.002904		0.479806
        0.377500		0.621290		0.534716		0.515062		0.002887		0.496336
        0.382500		0.611862		0.551063		0.504210		0.002870		0.513049
        0.387500		0.602506		0.567489		0.493504		0.002853		0.529942
        0.392500		0.593222		0.583991		0.482947		0.002835		0.547017
        0.397500		0.584014		0.600566		0.472538		0.002818		0.564274
        0.402500		0.574882		0.617214		0.462279		0.002800		0.581713
        0.407500		0.565827		0.633932		0.452170		0.002783		0.599335
        0.412500		0.556851		0.650719		0.442211		0.002766		0.617141
        0.417500		0.547954		0.667575		0.432402		0.002748		0.635133
        0.422500		0.539137		0.684499		0.422742		0.002731		0.653312
        0.427500		0.530400		0.701490		0.413231		0.002713		0.671681
        0.432500		0.521745		0.718548		0.403868		0.002696		0.690241
        0.437500		0.513170		0.735673		0.394653		0.002678		0.708996
        0.442500		0.504677		0.752865		0.385585		0.002661		0.727947
        0.447500		0.496266		0.770122		0.376663		0.002643		0.747097
        0.452500		0.487939		0.787444		0.367887		0.002626		0.766445
        0.457500		0.479696		0.804826		0.359257		0.002608		0.785992
        0.462500		0.471542		0.822260		0.350778		0.002591		0.805729
        0.467500		0.463485		0.839727		0.342455		0.002573		0.825639
        0.472500		0.455542		0.857190		0.334306		0.002556		0.845679
        0.477500		0.447749		0.874565		0.326364		0.002538		0.865754
        0.482500		0.440188		0.891656		0.318710		0.002521		0.885636
        0.487500		0.433056		0.907998		0.311537		0.002505		0.904770
        0.492500		0.426838		0.922417		0.305324		0.002491		0.921751
        0.497500		0.422634		0.932239		0.301154		0.002482		0.933364
        0.502500		0.421755		0.934240		0.300310		0.002480		0.935706
        0.507500		0.422893		0.931470		0.301479		0.002483		0.932377
        0.512500		0.423232		0.930587		0.301853		0.002484		0.931289
        0.517500		0.423404		0.930093		0.302062		0.002485		0.930662
        0.522500		0.423506		0.929763		0.302202		0.002485		0.930227
        0.527500		0.423569		0.929517		0.302306		0.002486		0.929891
        0.532500		0.423609		0.929323		0.302389		0.002486		0.929613
        0.537500		0.423632		0.929163		0.302457		0.002486		0.929373
        0.542500		0.423644		0.929025		0.302516		0.002487		0.929158
        0.547500		0.423645		0.928905		0.302567		0.002487		0.928961
        0.552500		0.423638		0.928799		0.302613		0.002488		0.928777
        0.557500		0.423623		0.928703		0.302653		0.002488		0.928603
        0.562500		0.423601		0.928617		0.302690		0.002489		0.928436
        0.567500		0.423571		0.928539		0.302724		0.002489		0.928274
        0.572500		0.423535		0.928467		0.302755		0.002489		0.928115
        0.577500		0.423492		0.928401		0.302783		0.002490		0.927959
        0.582500		0.423441		0.928341		0.302809		0.002490		0.927804
        0.587500		0.423383		0.928286		0.302833		0.002491		0.927647
        0.592500		0.423316		0.928234		0.302855		0.002492		0.927489
        0.597500		0.423239		0.928187		0.302875		0.002492		0.927327
        0.602500		0.423152		0.928144		0.302894		0.002493		0.927159
        0.607500		0.423052		0.928103		0.302911		0.002494		0.926982
        0.612500		0.422936		0.928066		0.302928		0.002494		0.926793
        0.617500		0.422800		0.928032		0.302943		0.002495		0.926587
        0.622500		0.422638		0.928000		0.302957		0.002496		0.926356
        0.627500		0.422439		0.927970		0.302970		0.002498		0.926089
        0.632500		0.422191		0.927943		0.302982		0.002499		0.925772
        0.637500		0.421874		0.927918		0.302993		0.002501		0.925381
        0.642500		0.421459		0.927894		0.303003		0.002504		0.924887
        0.647500		0.420910		0.927872		0.303013		0.002507		0.924248
        0.652500		0.420180		0.927852		0.303022		0.002512		0.923411
        0.657500		0.419206		0.927833		0.303030		0.002517		0.922309
        0.662500		0.417917		0.927816		0.303038		0.002525		0.920861
        0.667500		0.416229		0.927799		0.303045		0.002536		0.918973
        0.672500		0.414052		0.927784		0.303052		0.002549		0.916540
        0.677500		0.411290		0.927770		0.303059		0.002566		0.913455
        0.682500		0.407856		0.927757		0.303064		0.002588		0.909612
        0.687500		0.403671		0.927745		0.303070		0.002615		0.904913
        0.692500		0.398682		0.927733		0.303075		0.002647		0.899285
        0.697500		0.392863		0.927723		0.303080		0.002687		0.892681
        0.702500		0.386225		0.927713		0.303084		0.002733		0.885092
        0.707500		0.378822		0.927703		0.303088		0.002786		0.876554
        0.712500		0.370748		0.927695		0.303092		0.002847		0.867149
        0.717500		0.362137		0.927686		0.303095		0.002915		0.857007
        0.722500		0.353154		0.927679		0.303098		0.002989		0.846299
        0.727500		0.343986		0.927671		0.303101		0.003069		0.835232
        0.732500		0.334832		0.927664		0.303104		0.003153		0.824033
        0.737500		0.325885		0.927658		0.303106		0.003239		0.812940
        0.742500		0.317326		0.927651		0.303109		0.003327		0.802185
        0.747500		0.309308		0.927645		0.303111		0.003413		0.791978
        0.752500		0.301952		0.927640		0.303112		0.003496		0.782497
        0.757500		0.295342		0.927634		0.303114		0.003574		0.773878
        0.762500		0.289523		0.927629		0.303116		0.003646		0.766210
        0.767500		0.284504		0.927624		0.303117		0.003710		0.759534
        0.772500		0.280263		0.927619		0.303118		0.003767		0.753845
        0.777500		0.276750		0.927614		0.303120		0.003814		0.749100
        0.782500		0.273900		0.927609		0.303121		0.003854		0.745228
        0.787500		0.271635		0.927605		0.303122		0.003886		0.742135
        0.792500		0.269872		0.927600		0.303123		0.003912		0.739718
        0.797500		0.268529		0.927596		0.303124		0.003931		0.737871
        0.802500		0.267529		0.927591		0.303124		0.003946		0.736491
        0.807500		0.266802		0.927587		0.303125		0.003957		0.735485
        0.812500		0.266286		0.927582		0.303125		0.003964		0.734770
        0.817500		0.265931		0.927578		0.303126		0.003970		0.734276
        0.822500		0.265695		0.927572		0.303126		0.003973		0.733946
        0.827500		0.265544		0.927566		0.303125		0.003975		0.733733
        0.832500		0.265454		0.927559		0.303125		0.003977		0.733603
        0.837500		0.265403		0.927548		0.303123		0.003978		0.733527
        0.842500		0.265379		0.927534		0.303119		0.003978		0.733487
        0.847500		0.265370		0.927511		0.303113		0.003978		0.733464
        0.852500		0.265369		0.927477		0.303103		0.003978		0.733448
        0.857500		0.265370		0.927422		0.303086		0.003978		0.733425
        0.862500		0.265366		0.927333		0.303057		0.003977		0.733384
        0.867500		0.265351		0.927188		0.303010		0.003977		0.733306
        0.872500		0.265316		0.926953		0.302932		0.003976		0.733167
        0.877500		0.265250		0.926571		0.302805		0.003976		0.732927
        0.882500		0.265134		0.925952		0.302599		0.003975		0.732526
        0.887500		0.264935		0.924950		0.302264		0.003973		0.731865
        0.892500		0.264608		0.923334		0.301725		0.003971		0.730787
        0.897500		0.264074		0.920735		0.300858		0.003968		0.729042
        0.902500		0.263214		0.916570		0.299473		0.003962		0.726235
        0.907500		0.261842		0.909918		0.297272		0.003954		0.721739
        0.912500		0.259671		0.899345		0.293804		0.003940		0.714571
        0.917500		0.256277		0.882648		0.288399		0.003919		0.703205
        0.922500		0.251059		0.856524		0.280120		0.003886		0.685317
        0.927500		0.243231		0.816246		0.267767		0.003834		0.657487
        0.932500		0.231918		0.755596		0.250069		0.003755		0.614983
        0.937500		0.216488		0.667794		0.226256		0.003640		0.552071
        0.942500		0.197190		0.548839		0.197125		0.003481		0.463930
        0.947500		0.175922		0.404491		0.166114		0.003288		0.351805
        0.952500		0.156207		0.257083		0.138787		0.003094		0.230507
        0.957500		0.141440		0.138213		0.119578		0.002944		0.127042
        0.962500		0.132598		0.064293		0.108770		0.002857		0.059995
        0.967500		0.128217		0.027246		0.103650		0.002815		0.025611
        0.972500		0.126300		0.011013		0.101464		0.002798		0.010384
        0.977500		0.125515		0.004360		0.100578		0.002791		0.004116
        0.982500		0.125202		0.001711		0.100226		0.002788		0.001616
        0.987500		0.125079		0.000669		0.100089		0.002787		0.000632
        0.992500		0.125031		0.000261		0.100035		0.002786		0.000247
        0.997500		0.125012		0.000102		0.100013		0.002786		0.000096
