Variables = X,Ro,U,P,T,M
Zone i = 200
        0.002500		1.000000		0.000000		1.000000		0.003483		0.000000
        0.007500		1.000000		0.000000		1.000000		0.003483		0.000000
        0.012500		1.000000		0.000000		1.000000		0.003483		0.000000
        0.017500		1.000000		0.000000		1.000000		0.003483		0.000000
        0.022500		1.000000		0.000000		1.000000		0.003483		0.000000
        0.027500		1.000000		0.000000		1.000000		0.003483		0.000000
        0.032500		1.000000		0.000000		1.000000		0.003483		0.000000
        0.037500		1.000000		0.000000		1.000000		0.003483		0.000000
        0.042500		1.000000		0.000000		1.000000		0.003483		0.000000
        0.047500		1.000000		0.000000		1.000000		0.003483		0.000000
        0.052500		1.000000		0.000000		1.000000		0.003483		0.000000
        0.057500		1.000000		0.000000		1.000000		0.003483		0.000000
        0.062500		1.000000		0.000000		1.000000		0.003483		0.000000
        0.067500		1.000000		0.000000		1.000000		0.003483		0.000000
        0.072500		1.000000		0.000000		1.000000		0.003483		0.000000
        0.077500		1.000000		0.000000		1.000000		0.003483		0.000000
        0.082500		1.000000		0.000000		1.000000		0.003483		0.000000
        0.087500		1.000000		0.000000		1.000000		0.003483		0.000000
        0.092500		1.000000		0.000000		1.000000		0.003483		0.000000
        0.097500		1.000000		0.000000		1.000000		0.003483		0.000000
        0.102500		1.000000		0.000000		1.000000		0.003483		0.000000
        0.107500		1.000000		0.000000		1.000000		0.003483		0.000000
        0.112500		1.000000		0.000000		1.000000		0.003483		0.000000
        0.117500		1.000000		0.000000		1.000000		0.003483		0.000000
        0.122500		1.000000		0.000000		1.000000		0.003483		0.000000
        0.127500		1.000000		0.000000		1.000000		0.003483		0.000000
        0.132500		1.000000		0.000000		1.000000		0.003483		0.000000
        0.137500		0.999999		0.000001		0.999999		0.003483		0.000001
        0.142500		0.999998		0.000002		0.999997		0.003483		0.000002
        0.147500		0.999995		0.000006		0.999993		0.003483		0.000005
        0.152500		0.999988		0.000014		0.999983		0.003483		0.000012
        0.157500		0.999972		0.000033		0.999961		0.003483		0.000028
        0.162500		0.999936		0.000076		0.999910		0.003482		0.000064
        0.167500		0.999856		0.000171		0.999798		0.003482		0.000144
        0.172500		0.999686		0.000371		0.999561		0.003482		0.000314
        0.177500		0.999337		0.000785		0.999071		0.003482		0.000664
        0.182500		0.998641		0.001609		0.998098		0.003481		0.001360
        0.187500		0.997313		0.003183		0.996240		0.003479		0.002692
        0.192500		0.994900		0.006047		0.992868		0.003475		0.005116
        0.197500		0.990815		0.010909		0.987166		0.003470		0.009237
        0.202500		0.984583		0.018358		0.978485		0.003461		0.015564
        0.207500		0.976226		0.028406		0.966879		0.003449		0.024123
        0.212500		0.966264		0.040473		0.953096		0.003435		0.034441
        0.217500		0.955299		0.053871		0.937989		0.003419		0.045947
        0.222500		0.943756		0.068108		0.922159		0.003403		0.058232
        0.227500		0.931885		0.082895		0.905962		0.003386		0.071054
        0.232500		0.919833		0.098063		0.889601		0.003368		0.084275
        0.237500		0.907688		0.113508		0.873201		0.003350		0.097808
        0.242500		0.895511		0.129162		0.856845		0.003332		0.111598
        0.247500		0.883341		0.144979		0.840586		0.003314		0.125607
        0.252500		0.871206		0.160923		0.824465		0.003296		0.139807
        0.257500		0.859128		0.176971		0.808507		0.003277		0.154179
        0.262500		0.847122		0.193102		0.792733		0.003259		0.168707
        0.267500		0.835200		0.209304		0.777157		0.003241		0.183381
        0.272500		0.823370		0.225563		0.761790		0.003222		0.198191
        0.277500		0.811639		0.241871		0.746639		0.003204		0.213131
        0.282500		0.800013		0.258222		0.731710		0.003185		0.228196
        0.287500		0.788496		0.274608		0.717004		0.003167		0.243382
        0.292500		0.777090		0.291025		0.702526		0.003148		0.258684
        0.297500		0.765799		0.307469		0.688277		0.003130		0.274102
        0.302500		0.754623		0.323936		0.674255		0.003112		0.289633
        0.307500		0.743564		0.340424		0.660463		0.003093		0.305275
        0.312500		0.732624		0.356930		0.646898		0.003075		0.321027
        0.317500		0.721802		0.373452		0.633560		0.003057		0.336888
        0.322500		0.711099		0.389988		0.620447		0.003039		0.352858
        0.327500		0.700516		0.406537		0.607557		0.003020		0.368936
        0.332500		0.690052		0.423097		0.594890		0.003002		0.385122
        0.337500		0.679706		0.439667		0.582441		0.002984		0.401416
        0.342500		0.669480		0.456247		0.570210		0.002966		0.417818
        0.347500		0.659372		0.472835		0.558194		0.002948		0.434328
        0.352500		0.649382		0.489431		0.546390		0.002930		0.450947
        0.357500		0.639510		0.506033		0.534796		0.002912		0.467675
        0.362500		0.629754		0.522642		0.523410		0.002894		0.484512
        0.367500		0.620114		0.539256		0.512227		0.002877		0.501459
        0.372500		0.610590		0.555876		0.501247		0.002859		0.518517
        0.377500		0.601180		0.572501		0.490466		0.002841		0.535686
        0.382500		0.591884		0.589131		0.479881		0.002824		0.552967
        0.387500		0.582701		0.605766		0.469490		0.002806		0.570362
        0.392500		0.573629		0.622405		0.459289		0.002788		0.587870
        0.397500		0.564669		0.639048		0.449277		0.002771		0.605493
        0.402500		0.555819		0.655695		0.439449		0.002753		0.623233
        0.407500		0.547077		0.672347		0.429805		0.002736		0.641089
        0.412500		0.538444		0.689003		0.420339		0.002719		0.659064
        0.417500		0.529918		0.705664		0.411051		0.002701		0.677159
        0.422500		0.521498		0.722329		0.401936		0.002684		0.695375
        0.427500		0.513183		0.738999		0.392993		0.002667		0.713713
        0.432500		0.504972		0.755675		0.384218		0.002650		0.732177
        0.437500		0.496863		0.772357		0.375608		0.002633		0.750767
        0.442500		0.488854		0.789047		0.367160		0.002616		0.769487
        0.447500		0.480945		0.805747		0.358870		0.002599		0.788340
        0.452500		0.473134		0.822458		0.350737		0.002582		0.807330
        0.457500		0.465419		0.839178		0.342757		0.002565		0.826456
        0.462500		0.457808		0.855894		0.334935		0.002548		0.845701
        0.467500		0.450331		0.872533		0.327302		0.002531		0.864987
        0.472500		0.443088		0.888860		0.319956		0.002515		0.884035
        0.477500		0.436357		0.904220		0.313171		0.002499		0.902071
        0.482500		0.430721		0.917226		0.307521		0.002486		0.917431
        0.487500		0.426955		0.925987		0.303762		0.002478		0.927824
        0.492500		0.425369		0.929703		0.302183		0.002474		0.932240
        0.497500		0.425229		0.930032		0.302044		0.002474		0.932631
        0.502500		0.425913		0.928430		0.302724		0.002475		0.930726
        0.507500		0.426030		0.928156		0.302841		0.002476		0.930400
        0.512500		0.425857		0.928560		0.302670		0.002475		0.930880
        0.517500		0.425842		0.928595		0.302655		0.002475		0.930920
        0.522500		0.425857		0.928559		0.302671		0.002475		0.930877
        0.527500		0.425949		0.928345		0.302762		0.002475		0.930622
        0.532500		0.426029		0.928157		0.302842		0.002476		0.930399
        0.537500		0.426100		0.927990		0.302913		0.002476		0.930200
        0.542500		0.426159		0.927854		0.302971		0.002476		0.930038
        0.547500		0.426206		0.927743		0.303019		0.002476		0.929906
        0.552500		0.426243		0.927659		0.303055		0.002476		0.929806
        0.557500		0.426268		0.927598		0.303081		0.002476		0.929732
        0.562500		0.426285		0.927558		0.303098		0.002476		0.929684
        0.567500		0.426295		0.927534		0.303108		0.002476		0.929655
        0.572500		0.426298		0.927522		0.303114		0.002476		0.929637
        0.577500		0.426301		0.927516		0.303117		0.002476		0.929630
        0.582500		0.426301		0.927514		0.303118		0.002476		0.929628
        0.587500		0.426300		0.927515		0.303118		0.002476		0.929627
        0.592500		0.426299		0.927517		0.303118		0.002476		0.929628
        0.597500		0.426297		0.927519		0.303117		0.002476		0.929630
        0.602500		0.426295		0.927521		0.303116		0.002476		0.929630
        0.607500		0.426292		0.927523		0.303116		0.002476		0.929630
        0.612500		0.426290		0.927524		0.303116		0.002476		0.929628
        0.617500		0.426287		0.927525		0.303116		0.002476		0.929626
        0.622500		0.426285		0.927525		0.303117		0.002476		0.929622
        0.627500		0.426282		0.927524		0.303117		0.002476		0.929618
        0.632500		0.426279		0.927523		0.303118		0.002476		0.929612
        0.637500		0.426274		0.927522		0.303119		0.002476		0.929605
        0.642500		0.426269		0.927521		0.303120		0.002476		0.929596
        0.647500		0.426262		0.927519		0.303121		0.002477		0.929585
        0.652500		0.426252		0.927518		0.303123		0.002477		0.929570
        0.657500		0.426237		0.927516		0.303124		0.002477		0.929551
        0.662500		0.426214		0.927515		0.303125		0.002477		0.929523
        0.667500		0.426178		0.927514		0.303126		0.002477		0.929480
        0.672500		0.426116		0.927513		0.303127		0.002477		0.929410
        0.677500		0.426008		0.927512		0.303128		0.002478		0.929289
        0.682500		0.425814		0.927511		0.303130		0.002479		0.929075
        0.687500		0.425462		0.927510		0.303131		0.002481		0.928688
        0.692500		0.424822		0.927510		0.303132		0.002485		0.927987
        0.697500		0.423670		0.927509		0.303133		0.002492		0.926727
        0.702500		0.421636		0.927509		0.303134		0.002504		0.924498
        0.707500		0.418139		0.927509		0.303135		0.002525		0.920655
        0.712500		0.412323		0.927509		0.303136		0.002560		0.914229
        0.717500		0.403032		0.927510		0.303136		0.002619		0.903868
        0.722500		0.388878		0.927510		0.303137		0.002715		0.887854
        0.727500		0.368526		0.927511		0.303138		0.002865		0.864309
        0.732500		0.341533		0.927511		0.303139		0.003091		0.832053
        0.737500		0.311052		0.927512		0.303139		0.003394		0.794056
        0.742500		0.286656		0.927513		0.303140		0.003683		0.762281
        0.747500		0.273783		0.927514		0.303141		0.003856		0.744968
        0.752500		0.268301		0.927515		0.303141		0.003935		0.737472
        0.757500		0.266188		0.927516		0.303142		0.003966		0.734562
        0.762500		0.265475		0.927517		0.303143		0.003977		0.733578
        0.767500		0.265292		0.927519		0.303143		0.003979		0.733326
        0.772500		0.265274		0.927520		0.303144		0.003980		0.733300
        0.777500		0.265298		0.927521		0.303145		0.003979		0.733334
        0.782500		0.265381		0.927522		0.303145		0.003978		0.733449
        0.787500		0.265504		0.927524		0.303146		0.003976		0.733619
        0.792500		0.265566		0.927525		0.303147		0.003975		0.733705
        0.797500		0.265578		0.927527		0.303148		0.003975		0.733722
        0.802500		0.265577		0.927529		0.303149		0.003975		0.733720
        0.807500		0.265568		0.927531		0.303150		0.003975		0.733708
        0.812500		0.265548		0.927533		0.303150		0.003976		0.733682
        0.817500		0.265532		0.927536		0.303152		0.003976		0.733661
        0.822500		0.265529		0.927538		0.303153		0.003976		0.733658
        0.827500		0.265530		0.927541		0.303154		0.003976		0.733660
        0.832500		0.265534		0.927544		0.303155		0.003976		0.733666
        0.837500		0.265544		0.927548		0.303156		0.003976		0.733681
        0.842500		0.265559		0.927552		0.303158		0.003976		0.733703
        0.847500		0.265572		0.927556		0.303159		0.003975		0.733722
        0.852500		0.265578		0.927560		0.303161		0.003975		0.733732
        0.857500		0.265581		0.927565		0.303163		0.003975		0.733738
        0.862500		0.265582		0.927570		0.303164		0.003975		0.733741
        0.867500		0.265582		0.927576		0.303167		0.003975		0.733744
        0.872500		0.265583		0.927582		0.303169		0.003975		0.733747
        0.877500		0.265584		0.927589		0.303171		0.003975		0.733751
        0.882500		0.265585		0.927598		0.303174		0.003975		0.733756
        0.887500		0.265589		0.927612		0.303179		0.003975		0.733766
        0.892500		0.265593		0.927623		0.303183		0.003975		0.733775
        0.897500		0.265594		0.927622		0.303183		0.003975		0.733777
        0.902500		0.265593		0.927610		0.303178		0.003975		0.733770
        0.907500		0.265581		0.927545		0.303157		0.003975		0.733729
        0.912500		0.265527		0.927284		0.303069		0.003975		0.733555
        0.917500		0.265318		0.926288		0.302735		0.003974		0.732882
        0.922500		0.264537		0.922562		0.301487		0.003969		0.730366
        0.927500		0.261663		0.908779		0.296905		0.003952		0.721035
        0.932500		0.251447		0.858743		0.280716		0.003888		0.686892
        0.937500		0.219823		0.686839		0.231740		0.003671		0.565362
        0.942500		0.160026		0.291293		0.145007		0.003156		0.258622
        0.947500		0.130328		0.045555		0.106161		0.002837		0.042658
        0.952500		0.125743		0.006301		0.100836		0.002793		0.005947
        0.957500		0.125100		0.000849		0.100112		0.002787		0.000802
        0.962500		0.125013		0.000114		0.100015		0.002786		0.000108
        0.967500		0.125002		0.000015		0.100002		0.002786		0.000014
        0.972500		0.125000		0.000002		0.100000		0.002786		0.000002
        0.977500		0.125000		0.000000		0.100000		0.002786		0.000000
        0.982500		0.125000		0.000000		0.100000		0.002786		0.000000
        0.987500		0.125000		0.000000		0.100000		0.002786		0.000000
        0.992500		0.125000		0.000000		0.100000		0.002786		0.000000
        0.997500		0.125000		0.000000		0.100000		0.002786		0.000000
