Variables = X,Ro,U,P,T,M
Zone i = 200
        0.002500		1.000000		0.000000		1.000000		0.003483		0.000000
        0.007500		1.000000		0.000000		1.000000		0.003483		0.000000
        0.012500		1.000000		0.000001		0.999999		0.003483		0.000000
        0.017500		0.999999		0.000001		0.999999		0.003483		0.000001
        0.022500		0.999999		0.000001		0.999998		0.003483		0.000001
        0.027500		0.999998		0.000002		0.999997		0.003483		0.000002
        0.032500		0.999997		0.000004		0.999996		0.003483		0.000003
        0.037500		0.999995		0.000006		0.999993		0.003483		0.000005
        0.042500		0.999992		0.000009		0.999989		0.003483		0.000008
        0.047500		0.999988		0.000014		0.999983		0.003483		0.000012
        0.052500		0.999981		0.000022		0.999974		0.003483		0.000019
        0.057500		0.999971		0.000034		0.999959		0.003483		0.000029
        0.062500		0.999956		0.000052		0.999938		0.003483		0.000044
        0.067500		0.999934		0.000078		0.999908		0.003482		0.000066
        0.072500		0.999902		0.000116		0.999863		0.003482		0.000098
        0.077500		0.999856		0.000170		0.999799		0.003482		0.000144
        0.082500		0.999792		0.000246		0.999709		0.003482		0.000208
        0.087500		0.999702		0.000353		0.999582		0.003482		0.000298
        0.092500		0.999577		0.000500		0.999408		0.003482		0.000423
        0.097500		0.999408		0.000700		0.999171		0.003482		0.000592
        0.102500		0.999181		0.000970		0.998853		0.003481		0.000820
        0.107500		0.998879		0.001327		0.998431		0.003481		0.001121
        0.112500		0.998485		0.001794		0.997879		0.003480		0.001517
        0.117500		0.997975		0.002397		0.997167		0.003480		0.002027
        0.122500		0.997326		0.003167		0.996259		0.003479		0.002678
        0.127500		0.996509		0.004135		0.995117		0.003478		0.003497
        0.132500		0.995496		0.005337		0.993702		0.003476		0.004515
        0.137500		0.994254		0.006811		0.991968		0.003475		0.005763
        0.142500		0.992753		0.008595		0.989873		0.003472		0.007275
        0.147500		0.990960		0.010728		0.987373		0.003470		0.009084
        0.152500		0.988845		0.013249		0.984426		0.003467		0.011222
        0.157500		0.986379		0.016191		0.980995		0.003464		0.013722
        0.162500		0.983538		0.019589		0.977046		0.003460		0.016611
        0.167500		0.980299		0.023470		0.972552		0.003455		0.019914
        0.172500		0.976648		0.027857		0.967492		0.003450		0.023655
        0.177500		0.972571		0.032770		0.961853		0.003444		0.027850
        0.182500		0.968063		0.038221		0.955630		0.003438		0.032512
        0.187500		0.963123		0.044216		0.948824		0.003431		0.037650
        0.192500		0.957754		0.050758		0.941444		0.003423		0.043268
        0.197500		0.951965		0.057844		0.933507		0.003415		0.049368
        0.202500		0.945768		0.065465		0.925033		0.003406		0.055945
        0.207500		0.939179		0.073611		0.916049		0.003397		0.062993
        0.212500		0.932217		0.082266		0.906585		0.003387		0.070504
        0.217500		0.924902		0.091414		0.896674		0.003376		0.078465
        0.222500		0.917258		0.101034		0.886350		0.003365		0.086865
        0.227500		0.909307		0.111106		0.875651		0.003354		0.095690
        0.232500		0.901074		0.121609		0.864612		0.003342		0.104924
        0.237500		0.892584		0.132521		0.853270		0.003329		0.114552
        0.242500		0.883859		0.143818		0.841661		0.003316		0.124558
        0.247500		0.874924		0.155480		0.829821		0.003303		0.134929
        0.252500		0.865800		0.167485		0.817781		0.003289		0.145648
        0.257500		0.856510		0.179813		0.805574		0.003275		0.156700
        0.262500		0.847074		0.192443		0.793230		0.003261		0.168073
        0.267500		0.837512		0.205357		0.780777		0.003247		0.179753
        0.272500		0.827842		0.218536		0.768241		0.003232		0.191728
        0.277500		0.818080		0.231965		0.755646		0.003217		0.203984
        0.282500		0.808244		0.245626		0.743015		0.003202		0.216513
        0.287500		0.798347		0.259506		0.730368		0.003186		0.229302
        0.292500		0.788404		0.273590		0.717724		0.003170		0.242344
        0.297500		0.778426		0.287866		0.705101		0.003155		0.255629
        0.302500		0.768427		0.302321		0.692514		0.003139		0.269148
        0.307500		0.758415		0.316944		0.679977		0.003122		0.282895
        0.312500		0.748402		0.331726		0.667503		0.003106		0.296863
        0.317500		0.738396		0.346656		0.655103		0.003090		0.311046
        0.322500		0.728406		0.361726		0.642789		0.003073		0.325438
        0.327500		0.718438		0.376928		0.630570		0.003057		0.340034
        0.332500		0.708500		0.392253		0.618453		0.003040		0.354829
        0.337500		0.698597		0.407695		0.606447		0.003023		0.369819
        0.342500		0.688737		0.423249		0.594558		0.003006		0.385000
        0.347500		0.678923		0.438906		0.582792		0.002989		0.400370
        0.352500		0.669161		0.454663		0.571154		0.002973		0.415925
        0.357500		0.659455		0.470514		0.559649		0.002956		0.431662
        0.362500		0.649809		0.486454		0.548280		0.002938		0.447579
        0.367500		0.640226		0.502479		0.537052		0.002921		0.463674
        0.372500		0.630710		0.518585		0.525967		0.002904		0.479945
        0.377500		0.621263		0.534768		0.515027		0.002887		0.496391
        0.382500		0.611888		0.551024		0.504236		0.002870		0.513010
        0.387500		0.602588		0.567350		0.493594		0.002853		0.529800
        0.392500		0.593364		0.583743		0.483104		0.002835		0.546762
        0.397500		0.584219		0.600200		0.472766		0.002818		0.563893
        0.402500		0.575156		0.616718		0.462582		0.002801		0.581193
        0.407500		0.566174		0.633293		0.452553		0.002784		0.598661
        0.412500		0.557277		0.649924		0.442679		0.002766		0.616297
        0.417500		0.548465		0.666607		0.432960		0.002749		0.634098
        0.422500		0.539741		0.683339		0.423399		0.002732		0.652064
        0.427500		0.531106		0.700116		0.413994		0.002715		0.670193
        0.432500		0.522562		0.716934		0.404747		0.002697		0.688482
        0.437500		0.514112		0.733789		0.395659		0.002680		0.706928
        0.442500		0.505757		0.750673		0.386732		0.002663		0.725526
        0.447500		0.497502		0.767579		0.377967		0.002646		0.744268
        0.452500		0.489352		0.784494		0.369369		0.002629		0.763143
        0.457500		0.481313		0.801403		0.360944		0.002612		0.782134
        0.462500		0.473396		0.818279		0.352700		0.002595		0.801211
        0.467500		0.465618		0.835082		0.344653		0.002578		0.820332
        0.472500		0.458007		0.851748		0.336828		0.002561		0.839419
        0.477500		0.450607		0.868165		0.329271		0.002545		0.858343
        0.482500		0.443502		0.884132		0.322061		0.002529		0.876864
        0.487500		0.436849		0.899272		0.315351		0.002514		0.894532
        0.492500		0.430941		0.912866		0.309429		0.002501		0.910482
        0.497500		0.426302		0.923631		0.304808		0.002490		0.923166
        0.502500		0.423594		0.929929		0.302132		0.002484		0.930598
        0.507500		0.422881		0.931533		0.301454		0.002483		0.932465
        0.512500		0.423076		0.930992		0.301684		0.002483		0.931784
        0.517500		0.423290		0.930400		0.301934		0.002484		0.931041
        0.522500		0.423430		0.929982		0.302111		0.002485		0.930503
        0.527500		0.423519		0.929678		0.302241		0.002485		0.930097
        0.532500		0.423577		0.929443		0.302340		0.002486		0.929773
        0.537500		0.423614		0.929253		0.302421		0.002486		0.929499
        0.542500		0.423635		0.929095		0.302489		0.002487		0.929260
        0.547500		0.423644		0.928959		0.302546		0.002487		0.929046
        0.552500		0.423643		0.928841		0.302597		0.002488		0.928849
        0.557500		0.423633		0.928736		0.302642		0.002488		0.928665
        0.562500		0.423616		0.928643		0.302682		0.002488		0.928491
        0.567500		0.423590		0.928559		0.302718		0.002489		0.928325
        0.572500		0.423558		0.928483		0.302750		0.002489		0.928163
        0.577500		0.423518		0.928414		0.302780		0.002490		0.928005
        0.582500		0.423471		0.928351		0.302807		0.002490		0.927849
        0.587500		0.423416		0.928294		0.302832		0.002491		0.927693
        0.592500		0.423353		0.928241		0.302855		0.002491		0.927536
        0.597500		0.423281		0.928193		0.302876		0.002492		0.927376
        0.602500		0.423198		0.928148		0.302895		0.002493		0.927212
        0.607500		0.423103		0.928107		0.302913		0.002493		0.927040
        0.612500		0.422994		0.928069		0.302929		0.002494		0.926857
        0.617500		0.422866		0.928034		0.302945		0.002495		0.926658
        0.622500		0.422712		0.928002		0.302959		0.002496		0.926436
        0.627500		0.422525		0.927972		0.302972		0.002497		0.926181
        0.632500		0.422290		0.927945		0.302984		0.002499		0.925877
        0.637500		0.421987		0.927919		0.302996		0.002501		0.925502
        0.642500		0.421588		0.927896		0.303006		0.002503		0.925025
        0.647500		0.421054		0.927874		0.303016		0.002506		0.924403
        0.652500		0.420337		0.927854		0.303025		0.002511		0.923581
        0.657500		0.419372		0.927835		0.303033		0.002516		0.922490
        0.662500		0.418085		0.927818		0.303041		0.002524		0.921043
        0.667500		0.416387		0.927802		0.303049		0.002535		0.919144
        0.672500		0.414184		0.927787		0.303056		0.002548		0.916684
        0.677500		0.411379		0.927773		0.303062		0.002566		0.913551
        0.682500		0.407880		0.927760		0.303068		0.002588		0.909636
        0.687500		0.403609		0.927748		0.303073		0.002615		0.904841
        0.692500		0.398512		0.927737		0.303079		0.002649		0.899091
        0.697500		0.392567		0.927727		0.303083		0.002689		0.892343
        0.702500		0.385791		0.927717		0.303088		0.002736		0.884592
        0.707500		0.378243		0.927708		0.303092		0.002791		0.875883
        0.712500		0.370028		0.927700		0.303096		0.002853		0.866305
        0.717500		0.361285		0.927692		0.303099		0.002922		0.855998
        0.722500		0.352190		0.927684		0.303102		0.002997		0.845143
        0.727500		0.342936		0.927677		0.303105		0.003078		0.833955
        0.732500		0.333725		0.927671		0.303108		0.003163		0.822670
        0.737500		0.324755		0.927664		0.303110		0.003250		0.811529
        0.742500		0.316204		0.927659		0.303113		0.003338		0.800766
        0.747500		0.308224		0.927653		0.303115		0.003425		0.790590
        0.752500		0.300932		0.927648		0.303117		0.003508		0.781175
        0.757500		0.294406		0.927643		0.303119		0.003586		0.772651
        0.762500		0.288684		0.927638		0.303120		0.003657		0.765100
        0.767500		0.283770		0.927633		0.303122		0.003720		0.758554
        0.772500		0.279634		0.927629		0.303123		0.003775		0.753001
        0.777500		0.276224		0.927624		0.303125		0.003822		0.748390
        0.782500		0.273470		0.927620		0.303126		0.003860		0.744645
        0.787500		0.271290		0.927616		0.303127		0.003891		0.741667
        0.792500		0.269602		0.927612		0.303128		0.003916		0.739352
        0.797500		0.268323		0.927608		0.303129		0.003934		0.737591
        0.802500		0.267375		0.927604		0.303130		0.003948		0.736283
        0.807500		0.266690		0.927601		0.303131		0.003958		0.735335
        0.812500		0.266207		0.927597		0.303131		0.003966		0.734665
        0.817500		0.265877		0.927592		0.303132		0.003971		0.734206
        0.822500		0.265660		0.927588		0.303132		0.003974		0.733902
        0.827500		0.265523		0.927582		0.303132		0.003976		0.733709
        0.832500		0.265442		0.927575		0.303131		0.003977		0.733592
        0.837500		0.265398		0.927565		0.303129		0.003978		0.733526
        0.842500		0.265379		0.927551		0.303126		0.003978		0.733492
        0.847500		0.265373		0.927529		0.303120		0.003978		0.733474
        0.852500		0.265374		0.927494		0.303110		0.003978		0.733460
        0.857500		0.265375		0.927439		0.303092		0.003978		0.733439
        0.862500		0.265372		0.927349		0.303064		0.003977		0.733398
        0.867500		0.265357		0.927204		0.303016		0.003977		0.733320
        0.872500		0.265322		0.926967		0.302938		0.003976		0.733179
        0.877500		0.265256		0.926583		0.302810		0.003976		0.732938
        0.882500		0.265138		0.925960		0.302602		0.003975		0.732534
        0.887500		0.264938		0.924953		0.302266		0.003973		0.731869
        0.892500		0.264609		0.923330		0.301724		0.003971		0.730786
        0.897500		0.264073		0.920721		0.300854		0.003968		0.729034
        0.902500		0.263210		0.916539		0.299463		0.003962		0.726217
        0.907500		0.261832		0.909864		0.297255		0.003954		0.721704
        0.912500		0.259654		0.899256		0.293775		0.003940		0.714511
        0.917500		0.256250		0.882505		0.288354		0.003919		0.703108
        0.922500		0.251017		0.856303		0.280051		0.003885		0.685166
        0.927500		0.243167		0.815910		0.267666		0.003833		0.657255
        0.932500		0.231830		0.755103		0.249930		0.003754		0.614635
        0.937500		0.216373		0.667107		0.226080		0.003639		0.551572
        0.942500		0.197058		0.547958		0.196928		0.003480		0.463262
        0.947500		0.175793		0.403511		0.165930		0.003287		0.351018
        0.952500		0.156104		0.256209		0.138649		0.003093		0.229762
        0.957500		0.141373		0.137623		0.119494		0.002944		0.126514
        0.962500		0.132562		0.063982		0.108727		0.002856		0.059708
        0.967500		0.128200		0.027106		0.103631		0.002815		0.025480
        0.972500		0.126294		0.010955		0.101457		0.002798		0.010330
        0.977500		0.125512		0.004337		0.100575		0.002791		0.004094
        0.982500		0.125201		0.001702		0.100225		0.002788		0.001608
        0.987500		0.125079		0.000665		0.100088		0.002787		0.000629
        0.992500		0.125031		0.000260		0.100034		0.002786		0.000245
        0.997500		0.125012		0.000101		0.100013		0.002786		0.000096
