Variables = X,Ro,U,P,T,M
Zone i = 200
        0.002500		1.000000		0.000000		1.000000		0.003483		0.000000
        0.007500		1.000000		0.000000		1.000000		0.003483		0.000000
        0.012500		1.000000		0.000000		1.000000		0.003483		0.000000
        0.017500		1.000000		0.000000		1.000000		0.003483		0.000000
        0.022500		1.000000		0.000000		1.000000		0.003483		0.000000
        0.027500		1.000000		0.000000		1.000000		0.003483		0.000000
        0.032500		1.000000		0.000000		1.000000		0.003483		0.000000
        0.037500		1.000000		0.000000		1.000000		0.003483		0.000000
        0.042500		1.000000		0.000000		1.000000		0.003483		0.000000
        0.047500		1.000000		0.000000		1.000000		0.003483		0.000000
        0.052500		1.000000		0.000000		1.000000		0.003483		0.000000
        0.057500		1.000000		0.000000		1.000000		0.003483		0.000000
        0.062500		1.000000		0.000000		1.000000		0.003483		0.000000
        0.067500		1.000000		0.000000		1.000000		0.003483		0.000000
        0.072500		1.000000		0.000000		1.000000		0.003483		0.000000
        0.077500		1.000000		0.000000		1.000000		0.003483		0.000000
        0.082500		1.000000		0.000000		1.000000		0.003483		0.000000
        0.087500		1.000000		0.000000		1.000000		0.003483		0.000000
        0.092500		1.000000		0.000000		1.000000		0.003483		0.000000
        0.097500		1.000000		0.000000		1.000000		0.003483		0.000000
        0.102500		1.000000		0.000000		1.000000		0.003483		0.000000
        0.107500		1.000000		0.000000		1.000000		0.003483		0.000000
        0.112500		1.000000		0.000000		1.000000		0.003483		0.000000
        0.117500		1.000000		0.000000		1.000000		0.003483		0.000000
        0.122500		1.000000		0.000000		1.000000		0.003483		0.000000
        0.127500		1.000000		0.000000		1.000000		0.003483		0.000000
        0.132500		1.000000		0.000000		1.000000		0.003483		0.000000
        0.137500		0.999999		0.000001		0.999999		0.003483		0.000001
        0.142500		0.999998		0.000003		0.999997		0.003483		0.000002
        0.147500		0.999995		0.000006		0.999992		0.003483		0.000005
        0.152500		0.999987		0.000015		0.999982		0.003483		0.000013
        0.157500		0.999970		0.000036		0.999958		0.003483		0.000030
        0.162500		0.999931		0.000082		0.999903		0.003482		0.000069
        0.167500		0.999846		0.000182		0.999784		0.003482		0.000154
        0.172500		0.999665		0.000396		0.999531		0.003482		0.000335
        0.177500		0.999294		0.000836		0.999011		0.003482		0.000706
        0.182500		0.998557		0.001708		0.997980		0.003481		0.001444
        0.187500		0.997155		0.003371		0.996019		0.003479		0.002850
        0.192500		0.994619		0.006381		0.992476		0.003475		0.005399
        0.197500		0.990357		0.011456		0.986527		0.003469		0.009701
        0.202500		0.983918		0.019155		0.977561		0.003460		0.016241
        0.207500		0.975379		0.029428		0.965706		0.003448		0.024995
        0.212500		0.965287		0.041662		0.951747		0.003434		0.035460
        0.217500		0.954236		0.055177		0.936527		0.003418		0.047071
        0.222500		0.942635		0.069498		0.920627		0.003401		0.059434
        0.227500		0.930726		0.084347		0.904384		0.003384		0.072317
        0.232500		0.918647		0.099563		0.887996		0.003366		0.085586
        0.237500		0.906487		0.115046		0.871583		0.003348		0.099159
        0.242500		0.894300		0.130728		0.855223		0.003330		0.112982
        0.247500		0.882128		0.146565		0.838971		0.003312		0.127016
        0.252500		0.869996		0.162522		0.822862		0.003294		0.141236
        0.257500		0.857927		0.178576		0.806925		0.003276		0.155621
        0.262500		0.845934		0.194708		0.791178		0.003257		0.170158
        0.267500		0.834030		0.210903		0.775634		0.003239		0.184834
        0.272500		0.822222		0.227151		0.760304		0.003220		0.199642
        0.277500		0.810517		0.243442		0.745194		0.003202		0.214574
        0.282500		0.798921		0.259768		0.730311		0.003184		0.229626
        0.287500		0.787436		0.276125		0.715656		0.003165		0.244792
        0.292500		0.776067		0.292507		0.701231		0.003147		0.260071
        0.297500		0.764815		0.308911		0.687039		0.003128		0.275459
        0.302500		0.753682		0.325331		0.673078		0.003110		0.290953
        0.307500		0.742669		0.341767		0.659350		0.003092		0.306553
        0.312500		0.731777		0.358215		0.645852		0.003074		0.322257
        0.317500		0.721007		0.374672		0.632584		0.003055		0.338064
        0.322500		0.710359		0.391138		0.619543		0.003037		0.353972
        0.327500		0.699834		0.407610		0.606730		0.003019		0.369982
        0.332500		0.689430		0.424086		0.594140		0.003001		0.386092
        0.337500		0.679149		0.440565		0.581773		0.002983		0.402302
        0.342500		0.668990		0.457046		0.569626		0.002965		0.418611
        0.347500		0.658952		0.473528		0.557697		0.002947		0.435021
        0.352500		0.649036		0.490009		0.545982		0.002930		0.451529
        0.357500		0.639240		0.506489		0.534481		0.002912		0.468136
        0.362500		0.629565		0.522965		0.523190		0.002894		0.484841
        0.367500		0.620009		0.539438		0.512106		0.002876		0.501645
        0.372500		0.610573		0.555905		0.501228		0.002859		0.518547
        0.377500		0.601255		0.572367		0.490552		0.002841		0.535547
        0.382500		0.592056		0.588821		0.480076		0.002824		0.552644
        0.387500		0.582974		0.605267		0.469798		0.002806		0.569839
        0.392500		0.574009		0.621704		0.459715		0.002789		0.587130
        0.397500		0.565160		0.638129		0.449824		0.002772		0.604517
        0.402500		0.556428		0.654542		0.440124		0.002755		0.622000
        0.407500		0.547811		0.670940		0.430612		0.002738		0.639576
        0.412500		0.539310		0.687322		0.421286		0.002720		0.657245
        0.417500		0.530924		0.703686		0.412143		0.002703		0.675005
        0.422500		0.522654		0.720027		0.403184		0.002687		0.692852
        0.427500		0.514500		0.736343		0.394405		0.002670		0.710784
        0.432500		0.506463		0.752629		0.385807		0.002653		0.728796
        0.437500		0.498545		0.768877		0.377389		0.002636		0.746880
        0.442500		0.490748		0.785079		0.369152		0.002620		0.765026
        0.447500		0.483078		0.801220		0.361100		0.002603		0.783218
        0.452500		0.475543		0.817277		0.353240		0.002587		0.801430
        0.457500		0.468160		0.833208		0.345586		0.002571		0.819613
        0.462500		0.460959		0.848939		0.338168		0.002555		0.837679
        0.467500		0.454005		0.864341		0.331046		0.002539		0.855475
        0.472500		0.447382		0.879097		0.324301		0.002524		0.872645
        0.477500		0.441322		0.892956		0.318184		0.002511		0.888800
        0.482500		0.436054		0.904952		0.312841		0.002499		0.902962
        0.487500		0.431711		0.914347		0.308520		0.002489		0.914117
        0.492500		0.429121		0.922094		0.305968		0.002483		0.922918
        0.497500		0.427140		0.925301		0.303872		0.002478		0.927169
        0.502500		0.425990		0.927053		0.302793		0.002475		0.929324
        0.507500		0.425887		0.928837		0.302745		0.002476		0.931074
        0.512500		0.425809		0.929342		0.302672		0.002475		0.931606
        0.517500		0.425738		0.929118		0.302540		0.002475		0.931507
        0.522500		0.425692		0.928750		0.302476		0.002475		0.931188
        0.527500		0.425711		0.928495		0.302505		0.002475		0.930908
        0.532500		0.425801		0.928435		0.302627		0.002475		0.930759
        0.537500		0.425936		0.928461		0.302781		0.002476		0.930694
        0.542500		0.426067		0.928408		0.302895		0.002476		0.930611
        0.547500		0.426112		0.928169		0.302921		0.002476		0.930380
        0.552500		0.426101		0.927872		0.302904		0.002476		0.930095
        0.557500		0.426107		0.927682		0.302916		0.002476		0.929894
        0.562500		0.426160		0.927658		0.302987		0.002476		0.929819
        0.567500		0.426242		0.927707		0.303076		0.002476		0.929821
        0.572500		0.426307		0.927698		0.303131		0.002476		0.929798
        0.577500		0.426317		0.927592		0.303136		0.002476		0.929696
        0.582500		0.426297		0.927455		0.303115		0.002476		0.929567
        0.587500		0.426291		0.927390		0.303116		0.002476		0.929495
        0.592500		0.426305		0.927395		0.303140		0.002476		0.929477
        0.597500		0.426334		0.927432		0.303174		0.002477		0.929495
        0.602500		0.426352		0.927429		0.303189		0.002477		0.929489
        0.607500		0.426350		0.927394		0.303186		0.002477		0.929455
        0.612500		0.426332		0.927347		0.303174		0.002477		0.929408
        0.617500		0.426320		0.927338		0.303173		0.002477		0.929387
        0.622500		0.426317		0.927351		0.303178		0.002477		0.929389
        0.627500		0.426320		0.927379		0.303187		0.002477		0.929406
        0.632500		0.426317		0.927393		0.303188		0.002477		0.929416
        0.637500		0.426304		0.927399		0.303183		0.002477		0.929415
        0.642500		0.426278		0.927399		0.303175		0.002477		0.929400
        0.647500		0.426238		0.927402		0.303166		0.002477		0.929372
        0.652500		0.426184		0.927412		0.303161		0.002477		0.929331
        0.657500		0.426127		0.927429		0.303160		0.002478		0.929288
        0.662500		0.426079		0.927444		0.303159		0.002478		0.929252
        0.667500		0.426034		0.927451		0.303155		0.002478		0.929216
        0.672500		0.425981		0.927450		0.303149		0.002478		0.929167
        0.677500		0.425902		0.927453		0.303145		0.002479		0.929090
        0.682500		0.425769		0.927463		0.303145		0.002480		0.928955
        0.687500		0.425525		0.927478		0.303148		0.002481		0.928697
        0.692500		0.425057		0.927490		0.303152		0.002484		0.928193
        0.697500		0.424168		0.927494		0.303155		0.002489		0.927222
        0.702500		0.422504		0.927495		0.303158		0.002499		0.925397
        0.707500		0.419459		0.927492		0.303165		0.002517		0.922044
        0.712500		0.414065		0.927490		0.303175		0.002550		0.916078
        0.717500		0.404939		0.927487		0.303189		0.002608		0.905904
        0.722500		0.390368		0.927487		0.303204		0.002705		0.889433
        0.727500		0.368624		0.927526		0.303245		0.002865		0.864286
        0.732500		0.338605		0.927674		0.303406		0.003121		0.828259
        0.737500		0.304205		0.927371		0.303477		0.003474		0.784712
        0.742500		0.280133		0.927444		0.303360		0.003771		0.753229
        0.747500		0.269870		0.927501		0.303241		0.003913		0.739493
        0.752500		0.266174		0.927533		0.303191		0.003967		0.734496
        0.757500		0.265022		0.927548		0.303170		0.003984		0.732943
        0.762500		0.264764		0.927551		0.303159		0.003988		0.732602
        0.767500		0.264752		0.927555		0.303155		0.003988		0.732593
        0.772500		0.264818		0.927555		0.303154		0.003987		0.732687
        0.777500		0.265020		0.927552		0.303152		0.003984		0.732966
        0.782500		0.265359		0.927558		0.303151		0.003979		0.733439
        0.787500		0.265614		0.927557		0.303154		0.003975		0.733788
        0.792500		0.265697		0.927556		0.303156		0.003974		0.733899
        0.797500		0.265714		0.927554		0.303157		0.003973		0.733920
        0.802500		0.265714		0.927550		0.303156		0.003973		0.733919
        0.807500		0.265709		0.927547		0.303155		0.003973		0.733910
        0.812500		0.265695		0.927547		0.303155		0.003974		0.733891
        0.817500		0.265671		0.927549		0.303155		0.003974		0.733859
        0.822500		0.265639		0.927556		0.303158		0.003974		0.733817
        0.827500		0.265608		0.927571		0.303163		0.003975		0.733779
        0.832500		0.265589		0.927598		0.303172		0.003975		0.733764
        0.837500		0.265585		0.927630		0.303182		0.003976		0.733771
        0.842500		0.265586		0.927647		0.303188		0.003976		0.733779
        0.847500		0.265587		0.927652		0.303190		0.003976		0.733782
        0.852500		0.265587		0.927653		0.303190		0.003976		0.733783
        0.857500		0.265589		0.927652		0.303190		0.003976		0.733785
        0.862500		0.265592		0.927652		0.303190		0.003976		0.733788
        0.867500		0.265594		0.927650		0.303189		0.003976		0.733791
        0.872500		0.265595		0.927648		0.303188		0.003976		0.733792
        0.877500		0.265596		0.927645		0.303188		0.003976		0.733791
        0.882500		0.265595		0.927640		0.303186		0.003975		0.733789
        0.887500		0.265594		0.927633		0.303184		0.003975		0.733784
        0.892500		0.265593		0.927628		0.303182		0.003975		0.733780
        0.897500		0.265592		0.927625		0.303182		0.003975		0.733778
        0.902500		0.265591		0.927621		0.303180		0.003975		0.733774
        0.907500		0.265587		0.927600		0.303174		0.003975		0.733760
        0.912500		0.265565		0.927490		0.303138		0.003975		0.733687
        0.917500		0.265458		0.926951		0.302963		0.003975		0.733325
        0.922500		0.264952		0.924412		0.302136		0.003971		0.731616
        0.927500		0.262641		0.912881		0.298387		0.003957		0.723839
        0.932500		0.252845		0.863911		0.282673		0.003893		0.690541
        0.937500		0.218999		0.676503		0.229994		0.003657		0.557916
        0.942500		0.156320		0.259951		0.139706		0.003112		0.232395
        0.947500		0.129571		0.038893		0.105255		0.002829		0.036471
        0.952500		0.125633		0.005362		0.100711		0.002792		0.005062
        0.957500		0.125085		0.000722		0.100096		0.002787		0.000682
        0.962500		0.125011		0.000097		0.100013		0.002786		0.000092
        0.967500		0.125002		0.000013		0.100002		0.002786		0.000012
        0.972500		0.125000		0.000002		0.100000		0.002786		0.000002
        0.977500		0.125000		0.000000		0.100000		0.002786		0.000000
        0.982500		0.125000		0.000000		0.100000		0.002786		0.000000
        0.987500		0.125000		0.000000		0.100000		0.002786		0.000000
        0.992500		0.125000		0.000000		0.100000		0.002786		0.000000
        0.997500		0.125000		0.000000		0.100000		0.002786		0.000000
