Variables = X,Ro,U,P,T,M
Zone i = 200
        0.002500		1.000000		0.000000		1.000000		0.003483		0.000000
        0.007500		1.000000		0.000000		1.000000		0.003483		0.000000
        0.012500		0.999999		0.000001		0.999999		0.003483		0.000001
        0.017500		0.999999		0.000001		0.999999		0.003483		0.000001
        0.022500		0.999999		0.000002		0.999998		0.003483		0.000002
        0.027500		0.999998		0.000003		0.999997		0.003483		0.000003
        0.032500		0.999996		0.000005		0.999995		0.003483		0.000004
        0.037500		0.999994		0.000007		0.999992		0.003483		0.000006
        0.042500		0.999991		0.000011		0.999988		0.003483		0.000010
        0.047500		0.999987		0.000017		0.999981		0.003483		0.000015
        0.052500		0.999980		0.000026		0.999972		0.003483		0.000022
        0.057500		0.999969		0.000039		0.999958		0.003483		0.000033
        0.062500		0.999954		0.000059		0.999937		0.003483		0.000050
        0.067500		0.999932		0.000086		0.999907		0.003482		0.000073
        0.072500		0.999901		0.000126		0.999865		0.003482		0.000106
        0.077500		0.999857		0.000181		0.999805		0.003482		0.000153
        0.082500		0.999795		0.000259		0.999721		0.003482		0.000219
        0.087500		0.999709		0.000366		0.999604		0.003482		0.000310
        0.092500		0.999592		0.000513		0.999445		0.003482		0.000433
        0.097500		0.999433		0.000711		0.999231		0.003482		0.000601
        0.102500		0.999219		0.000975		0.998943		0.003482		0.000824
        0.107500		0.998937		0.001324		0.998564		0.003481		0.001119
        0.112500		0.998567		0.001779		0.998068		0.003481		0.001504
        0.117500		0.998088		0.002366		0.997427		0.003480		0.002000
        0.122500		0.997475		0.003115		0.996609		0.003480		0.002634
        0.127500		0.996699		0.004060		0.995577		0.003479		0.003433
        0.132500		0.995731		0.005237		0.994290		0.003478		0.004429
        0.137500		0.994534		0.006686		0.992703		0.003476		0.005656
        0.142500		0.993073		0.008452		0.990770		0.003475		0.007152
        0.147500		0.991310		0.010578		0.988441		0.003473		0.008953
        0.152500		0.989208		0.013110		0.985668		0.003470		0.011100
        0.157500		0.986728		0.016093		0.982403		0.003467		0.013631
        0.162500		0.983836		0.019569		0.978601		0.003464		0.016583
        0.167500		0.980501		0.023577		0.974220		0.003460		0.019991
        0.172500		0.976694		0.028155		0.969225		0.003456		0.023886
        0.177500		0.972395		0.033330		0.963589		0.003451		0.028297
        0.182500		0.967589		0.039128		0.957291		0.003446		0.033247
        0.187500		0.962266		0.045565		0.950319		0.003439		0.038751
        0.192500		0.956427		0.052652		0.942671		0.003432		0.044823
        0.197500		0.950076		0.060392		0.934352		0.003425		0.051468
        0.202500		0.943227		0.068781		0.925378		0.003417		0.058689
        0.207500		0.935899		0.077810		0.915773		0.003408		0.066480
        0.212500		0.928117		0.087462		0.905564		0.003398		0.074833
        0.217500		0.919909		0.097716		0.894789		0.003387		0.083736
        0.222500		0.911307		0.108547		0.883488		0.003376		0.093172
        0.227500		0.902348		0.119927		0.871706		0.003364		0.103123
        0.232500		0.893069		0.131825		0.859489		0.003352		0.113568
        0.237500		0.883506		0.144207		0.846887		0.003338		0.124484
        0.242500		0.873698		0.157038		0.833948		0.003324		0.135848
        0.247500		0.863682		0.170285		0.820720		0.003309		0.147636
        0.252500		0.853493		0.183913		0.807252		0.003294		0.159825
        0.257500		0.843167		0.197887		0.793589		0.003278		0.172390
        0.262500		0.832735		0.212173		0.779775		0.003261		0.185309
        0.267500		0.822228		0.226741		0.765851		0.003244		0.198559
        0.272500		0.811673		0.241558		0.751856		0.003226		0.212119
        0.277500		0.801097		0.256595		0.737827		0.003208		0.225969
        0.282500		0.790522		0.271825		0.723796		0.003189		0.240090
        0.287500		0.779968		0.287221		0.709794		0.003169		0.254463
        0.292500		0.769456		0.302759		0.695847		0.003149		0.269072
        0.297500		0.759001		0.318416		0.681982		0.003129		0.283900
        0.302500		0.748619		0.334171		0.668220		0.003109		0.298934
        0.307500		0.738321		0.350003		0.654582		0.003088		0.314158
        0.312500		0.728120		0.365894		0.641085		0.003066		0.329560
        0.317500		0.718025		0.381828		0.627745		0.003045		0.345129
        0.322500		0.708044		0.397787		0.614576		0.003023		0.360852
        0.327500		0.698185		0.413757		0.601590		0.003001		0.376718
        0.332500		0.688454		0.429725		0.588798		0.002978		0.392718
        0.337500		0.678855		0.445676		0.576210		0.002956		0.408840
        0.342500		0.669395		0.461600		0.563832		0.002933		0.425077
        0.347500		0.660075		0.477483		0.551672		0.002911		0.441418
        0.352500		0.650901		0.493315		0.539737		0.002888		0.457854
        0.357500		0.641873		0.509086		0.528031		0.002865		0.474375
        0.362500		0.632995		0.524784		0.516559		0.002842		0.490972
        0.367500		0.624269		0.540399		0.505324		0.002819		0.507635
        0.372500		0.615696		0.555922		0.494331		0.002796		0.524353
        0.377500		0.607279		0.571340		0.483583		0.002773		0.541115
        0.382500		0.599019		0.586645		0.473082		0.002750		0.557909
        0.387500		0.590919		0.601823		0.462832		0.002728		0.574721
        0.392500		0.582980		0.616865		0.452835		0.002705		0.591539
        0.397500		0.575205		0.631757		0.443094		0.002683		0.608345
        0.402500		0.567597		0.646486		0.433612		0.002660		0.625121
        0.407500		0.560159		0.661036		0.424393		0.002639		0.641849
        0.412500		0.552895		0.675393		0.415440		0.002617		0.658506
        0.417500		0.545809		0.689538		0.406758		0.002595		0.675066
        0.422500		0.538906		0.703451		0.398352		0.002574		0.691502
        0.427500		0.532194		0.717111		0.390227		0.002554		0.707780
        0.432500		0.525677		0.730493		0.382390		0.002533		0.723867
        0.437500		0.519366		0.743571		0.374848		0.002514		0.739720
        0.442500		0.513270		0.756313		0.367610		0.002494		0.755295
        0.447500		0.507398		0.768688		0.360686		0.002476		0.770542
        0.452500		0.501763		0.780659		0.354085		0.002458		0.785404
        0.457500		0.496378		0.792186		0.347819		0.002440		0.799821
        0.462500		0.491257		0.803227		0.341900		0.002424		0.813727
        0.467500		0.486414		0.813738		0.336341		0.002408		0.827054
        0.472500		0.481864		0.823675		0.331154		0.002393		0.839729
        0.477500		0.477622		0.832991		0.326350		0.002380		0.851681
        0.482500		0.473701		0.841645		0.321941		0.002367		0.862839
        0.487500		0.470114		0.849598		0.317933		0.002355		0.873139
        0.492500		0.466867		0.856819		0.314331		0.002345		0.882527
        0.497500		0.463966		0.863287		0.311136		0.002335		0.890963
        0.502500		0.461410		0.868995		0.308341		0.002327		0.898423
        0.507500		0.459192		0.873947		0.305935		0.002320		0.904906
        0.512500		0.457298		0.878167		0.303898		0.002314		0.910434
        0.517500		0.455708		0.881692		0.302207		0.002310		0.915049
        0.522500		0.454399		0.884577		0.300831		0.002306		0.918817
        0.527500		0.453340		0.886884		0.299735		0.002303		0.921820
        0.532500		0.452498		0.888686		0.298882		0.002300		0.924151
        0.537500		0.451839		0.890059		0.298233		0.002299		0.925910
        0.542500		0.451332		0.891077		0.297753		0.002298		0.927195
        0.547500		0.450943		0.891812		0.297407		0.002297		0.928099
        0.552500		0.450647		0.892326		0.297165		0.002296		0.928707
        0.557500		0.450418		0.892675		0.297001		0.002296		0.929090
        0.562500		0.450236		0.892902		0.296894		0.002296		0.929307
        0.567500		0.450085		0.893043		0.296827		0.002297		0.929404
        0.572500		0.449953		0.893127		0.296786		0.002297		0.929417
        0.577500		0.449828		0.893173		0.296764		0.002298		0.929371
        0.582500		0.449702		0.893197		0.296753		0.002298		0.929283
        0.587500		0.449568		0.893208		0.296748		0.002299		0.929164
        0.592500		0.449417		0.893215		0.296746		0.002300		0.929018
        0.597500		0.449239		0.893225		0.296745		0.002300		0.928846
        0.602500		0.449021		0.893243		0.296742		0.002302		0.928643
        0.607500		0.448745		0.893274		0.296737		0.002303		0.928398
        0.612500		0.448386		0.893326		0.296727		0.002305		0.928097
        0.617500		0.447912		0.893406		0.296711		0.002307		0.927714
        0.622500		0.447278		0.893525		0.296687		0.002310		0.927218
        0.627500		0.446430		0.893694		0.296654		0.002314		0.926567
        0.632500		0.445301		0.893925		0.296608		0.002320		0.925705
        0.637500		0.443814		0.894233		0.296549		0.002327		0.924568
        0.642500		0.441882		0.894632		0.296474		0.002337		0.923081
        0.647500		0.439416		0.895135		0.296384		0.002349		0.921159
        0.652500		0.436329		0.895751		0.296278		0.002365		0.918715
        0.657500		0.432542		0.896489		0.296156		0.002384		0.915661
        0.662500		0.427994		0.897349		0.296021		0.002409		0.911916
        0.667500		0.422646		0.898329		0.295876		0.002438		0.907413
        0.672500		0.416490		0.899420		0.295725		0.002473		0.902104
        0.677500		0.409549		0.900605		0.295573		0.002513		0.895965
        0.682500		0.401879		0.901862		0.295424		0.002560		0.888999
        0.687500		0.393569		0.903167		0.295284		0.002613		0.881241
        0.692500		0.384734		0.904488		0.295157		0.002672		0.872756
        0.697500		0.375511		0.905796		0.295048		0.002736		0.863638
        0.702500		0.366053		0.907057		0.294961		0.002806		0.854005
        0.707500		0.356515		0.908241		0.294897		0.002881		0.843997
        0.712500		0.347055		0.909321		0.294860		0.002959		0.833767
        0.717500		0.337818		0.910275		0.294848		0.003040		0.823476
        0.722500		0.328938		0.911087		0.294862		0.003122		0.813287
        0.727500		0.320529		0.911747		0.294899		0.003204		0.803355
        0.732500		0.312683		0.912253		0.294958		0.003285		0.793823
        0.737500		0.305468		0.912609		0.295034		0.003364		0.784816
        0.742500		0.298928		0.912827		0.295124		0.003438		0.776436
        0.747500		0.293086		0.912922		0.295223		0.003508		0.768763
        0.752500		0.287943		0.912915		0.295329		0.003572		0.761846
        0.757500		0.283482		0.912825		0.295435		0.003629		0.755710
        0.762500		0.279669		0.912675		0.295540		0.003680		0.750354
        0.767500		0.276459		0.912485		0.295639		0.003724		0.745756
        0.772500		0.273801		0.912272		0.295730		0.003762		0.741873
        0.777500		0.271633		0.912053		0.295812		0.003793		0.738651
        0.782500		0.269896		0.911838		0.295884		0.003818		0.736022
        0.787500		0.268527		0.911636		0.295944		0.003838		0.733916
        0.792500		0.267469		0.911451		0.295994		0.003854		0.732259
        0.797500		0.266667		0.911286		0.296033		0.003866		0.730980
        0.802500		0.266073		0.911143		0.296063		0.003875		0.730013
        0.807500		0.265642		0.911019		0.296084		0.003882		0.729296
        0.812500		0.265338		0.910912		0.296098		0.003886		0.728776
        0.817500		0.265130		0.910821		0.296106		0.003889		0.728409
        0.822500		0.264994		0.910741		0.296108		0.003891		0.728155
        0.827500		0.264908		0.910670		0.296105		0.003893		0.727984
        0.832500		0.264858		0.910603		0.296098		0.003893		0.727871
        0.837500		0.264831		0.910537		0.296086		0.003894		0.727795
        0.842500		0.264818		0.910467		0.296069		0.003894		0.727742
        0.847500		0.264811		0.910384		0.296044		0.003893		0.727696
        0.852500		0.264803		0.910277		0.296009		0.003893		0.727643
        0.857500		0.264788		0.910131		0.295958		0.003893		0.727569
        0.862500		0.264758		0.909916		0.295879		0.003892		0.727452
        0.867500		0.264701		0.909590		0.295758		0.003891		0.727263
        0.872500		0.264601		0.909082		0.295568		0.003890		0.726953
        0.877500		0.264431		0.908279		0.295266		0.003889		0.726448
        0.882500		0.264149		0.907000		0.294785		0.003887		0.725629
        0.887500		0.263688		0.904954		0.294017		0.003883		0.724305
        0.892500		0.262944		0.901679		0.292791		0.003878		0.722171
        0.897500		0.261751		0.896440		0.290844		0.003870		0.718739
        0.902500		0.259859		0.888088		0.287772		0.003857		0.713241
        0.907500		0.256891		0.874842		0.282981		0.003836		0.704469
        0.912500		0.252316		0.854022		0.275645		0.003805		0.690562
        0.917500		0.245438		0.821749		0.264723		0.003756		0.668730
        0.922500		0.235485		0.772830		0.249137		0.003684		0.635012
        0.927500		0.221865		0.701290		0.228248		0.003583		0.584352
        0.932500		0.204654		0.602481		0.202629		0.003448		0.511727
        0.937500		0.185142		0.477657		0.174757		0.003287		0.415517
        0.942500		0.165882		0.339566		0.148678		0.003121		0.303136
        0.947500		0.149744		0.211950		0.128170		0.002981		0.193620
        0.952500		0.138398		0.116361		0.114672		0.002886		0.108039
        0.957500		0.131633		0.057764		0.107068		0.002833		0.054131
        0.962500		0.128094		0.026913		0.103244		0.002807		0.025335
        0.967500		0.126395		0.012121		0.101451		0.002795		0.011434
        0.972500		0.125619		0.005370		0.100641		0.002790		0.005070
        0.977500		0.125272		0.002361		0.100281		0.002788		0.002230
        0.982500		0.125119		0.001034		0.100123		0.002787		0.000977
        0.987500		0.125052		0.000453		0.100054		0.002786		0.000428
        0.992500		0.125023		0.000199		0.100023		0.002786		0.000188
        0.997500		0.125010		0.000092		0.100010		0.002786		0.000087
