Variables = X,Ro,U,P,T,M
Zone i = 200
        0.002500		1.000000		0.000000		1.000000		0.003483		0.000000
        0.007500		1.000000		0.000000		1.000000		0.003483		0.000000
        0.012500		1.000000		0.000000		1.000000		0.003483		0.000000
        0.017500		1.000000		0.000000		1.000000		0.003483		0.000000
        0.022500		1.000000		0.000000		1.000000		0.003483		0.000000
        0.027500		1.000000		0.000000		1.000000		0.003483		0.000000
        0.032500		1.000000		0.000000		1.000000		0.003483		0.000000
        0.037500		1.000000		0.000000		1.000000		0.003483		0.000000
        0.042500		1.000000		0.000000		1.000000		0.003483		0.000000
        0.047500		1.000000		0.000000		1.000000		0.003483		0.000000
        0.052500		1.000000		0.000000		1.000000		0.003483		0.000000
        0.057500		1.000000		0.000000		1.000000		0.003483		0.000000
        0.062500		1.000000		0.000000		1.000000		0.003483		0.000000
        0.067500		1.000000		0.000000		1.000000		0.003483		0.000000
        0.072500		1.000000		0.000000		1.000000		0.003483		0.000000
        0.077500		1.000000		0.000000		1.000000		0.003483		0.000000
        0.082500		1.000000		0.000000		1.000000		0.003483		0.000000
        0.087500		1.000000		0.000000		1.000000		0.003483		0.000000
        0.092500		1.000000		0.000000		1.000000		0.003483		0.000000
        0.097500		1.000000		0.000000		1.000000		0.003483		0.000000
        0.102500		1.000000		0.000000		1.000000		0.003483		0.000000
        0.107500		1.000000		0.000000		1.000000		0.003483		0.000000
        0.112500		1.000000		0.000000		1.000000		0.003483		0.000000
        0.117500		1.000000		0.000000		1.000000		0.003483		0.000000
        0.122500		1.000000		0.000000		1.000000		0.003483		0.000000
        0.127500		1.000000		0.000000		1.000000		0.003483		0.000000
        0.132500		1.000000		0.000000		1.000000		0.003483		0.000000
        0.137500		1.000000		0.000000		1.000000		0.003483		0.000000
        0.142500		0.999999		0.000001		0.999999		0.003483		0.000001
        0.147500		0.999999		0.000002		0.999998		0.003483		0.000001
        0.152500		0.999997		0.000004		0.999996		0.003483		0.000003
        0.157500		0.999993		0.000008		0.999991		0.003483		0.000007
        0.162500		0.999983		0.000020		0.999978		0.003483		0.000017
        0.167500		0.999962		0.000044		0.999951		0.003483		0.000037
        0.172500		0.999916		0.000098		0.999891		0.003483		0.000083
        0.177500		0.999818		0.000212		0.999764		0.003482		0.000179
        0.182500		0.999614		0.000447		0.999502		0.003482		0.000378
        0.187500		0.999204		0.000919		0.998976		0.003482		0.000777
        0.192500		0.998407		0.001835		0.997953		0.003481		0.001551
        0.197500		0.996912		0.003548		0.996040		0.003480		0.003000
        0.202500		0.994233		0.006616		0.992616		0.003477		0.005596
        0.207500		0.989704		0.011803		0.986835		0.003472		0.009990
        0.212500		0.982641		0.019913		0.977826		0.003466		0.016871
        0.217500		0.972718		0.031379		0.965163		0.003456		0.026624
        0.222500		0.960248		0.045954		0.949207		0.003443		0.039064
        0.227500		0.945983		0.062896		0.930877		0.003427		0.053586
        0.232500		0.930694		0.081396		0.911128		0.003409		0.069527
        0.237500		0.914943		0.100833		0.890678		0.003390		0.086373
        0.242500		0.899084		0.120798		0.869991		0.003370		0.103786
        0.247500		0.883324		0.141035		0.849348		0.003349		0.121557
        0.252500		0.867786		0.161385		0.828915		0.003327		0.139557
        0.257500		0.852536		0.181749		0.808797		0.003304		0.157705
        0.262500		0.837613		0.202061		0.789054		0.003281		0.175949
        0.267500		0.823037		0.222278		0.769725		0.003257		0.194256
        0.272500		0.808817		0.242369		0.750830		0.003233		0.212602
        0.277500		0.794953		0.262314		0.732380		0.003208		0.230973
        0.282500		0.781442		0.282102		0.714380		0.003184		0.249359
        0.287500		0.768276		0.301721		0.696828		0.003159		0.267755
        0.292500		0.755447		0.321167		0.679721		0.003133		0.286157
        0.297500		0.742946		0.340436		0.663052		0.003108		0.304563
        0.302500		0.730762		0.359527		0.646814		0.003083		0.322973
        0.307500		0.718884		0.378439		0.630996		0.003057		0.341388
        0.312500		0.707301		0.397173		0.615591		0.003031		0.359808
        0.317500		0.696004		0.415729		0.600588		0.003005		0.378237
        0.322500		0.684981		0.434109		0.585977		0.002979		0.396674
        0.327500		0.674223		0.452316		0.571748		0.002953		0.415124
        0.332500		0.663719		0.470351		0.557891		0.002927		0.433586
        0.337500		0.653461		0.488217		0.544397		0.002901		0.452065
        0.342500		0.643440		0.505915		0.531256		0.002875		0.470561
        0.347500		0.633647		0.523448		0.518458		0.002849		0.489076
        0.352500		0.624075		0.540818		0.505995		0.002824		0.507612
        0.357500		0.614715		0.558027		0.493858		0.002798		0.526171
        0.362500		0.605561		0.575077		0.482039		0.002772		0.544753
        0.367500		0.596605		0.591969		0.470528		0.002747		0.563359
        0.372500		0.587841		0.608706		0.459319		0.002721		0.581991
        0.377500		0.579262		0.625290		0.448404		0.002696		0.600648
        0.382500		0.570864		0.641720		0.437776		0.002671		0.619330
        0.387500		0.562641		0.657998		0.427427		0.002646		0.638036
        0.392500		0.554588		0.674124		0.417351		0.002621		0.656765
        0.397500		0.546701		0.690098		0.407544		0.002596		0.675514
        0.402500		0.538976		0.705917		0.397999		0.002572		0.694278
        0.407500		0.531411		0.721578		0.388714		0.002547		0.713050
        0.412500		0.524006		0.737074		0.379685		0.002523		0.731818
        0.417500		0.516761		0.752393		0.370915		0.002500		0.750565
        0.422500		0.509683		0.767513		0.362409		0.002476		0.769259
        0.427500		0.502784		0.782401		0.354177		0.002453		0.787854
        0.432500		0.496082		0.797002		0.346242		0.002431		0.806273
        0.437500		0.489614		0.811230		0.338641		0.002409		0.824398
        0.442500		0.483433		0.824951		0.331432		0.002388		0.842045
        0.447500		0.477616		0.837974		0.324698		0.002368		0.858946
        0.452500		0.472270		0.850038		0.318554		0.002349		0.874738
        0.457500		0.467521		0.860834		0.313133		0.002333		0.888979
        0.462500		0.463492		0.870054		0.308561		0.002318		0.901225
        0.467500		0.460261		0.877474		0.304915		0.002307		0.911136
        0.472500		0.457844		0.883057		0.302202		0.002299		0.918619
        0.477500		0.456174		0.886964		0.300325		0.002293		0.923871
        0.482500		0.455057		0.889472		0.299085		0.002289		0.927266
        0.487500		0.454390		0.891032		0.298351		0.002287		0.929351
        0.492500		0.454037		0.891977		0.297940		0.002285		0.930618
        0.497500		0.453797		0.892490		0.297666		0.002284		0.931335
        0.502500		0.453621		0.892794		0.297486		0.002284		0.931753
        0.507500		0.453519		0.893039		0.297379		0.002284		0.932072
        0.512500		0.453459		0.893262		0.297302		0.002283		0.932362
        0.517500		0.453408		0.893449		0.297229		0.002283		0.932619
        0.522500		0.453350		0.893585		0.297152		0.002283		0.932822
        0.527500		0.453281		0.893669		0.297077		0.002282		0.932957
        0.532500		0.453220		0.893734		0.297027		0.002282		0.933042
        0.537500		0.453216		0.893816		0.297020		0.002282		0.933134
        0.542500		0.453229		0.893878		0.297022		0.002282		0.933208
        0.547500		0.453236		0.893884		0.297012		0.002282		0.933237
        0.552500		0.453239		0.893857		0.297005		0.002282		0.933223
        0.557500		0.453243		0.893820		0.297008		0.002282		0.933185
        0.562500		0.453257		0.893781		0.297020		0.002282		0.933139
        0.567500		0.453282		0.893747		0.297046		0.002282		0.933090
        0.572500		0.453315		0.893717		0.297077		0.002282		0.933043
        0.577500		0.453350		0.893681		0.297105		0.002282		0.932997
        0.582500		0.453376		0.893632		0.297120		0.002282		0.932949
        0.587500		0.453390		0.893578		0.297124		0.002282		0.932902
        0.592500		0.453403		0.893543		0.297128		0.002282		0.932872
        0.597500		0.453425		0.893537		0.297142		0.002282		0.932867
        0.602500		0.453452		0.893546		0.297156		0.002282		0.932882
        0.607500		0.453474		0.893546		0.297159		0.002282		0.932898
        0.612500		0.453489		0.893538		0.297156		0.002282		0.932912
        0.617500		0.453505		0.893529		0.297146		0.002282		0.932932
        0.622500		0.453524		0.893528		0.297139		0.002282		0.932962
        0.627500		0.453545		0.893535		0.297135		0.002282		0.932999
        0.632500		0.453573		0.893549		0.297135		0.002281		0.933042
        0.637500		0.453611		0.893558		0.297134		0.002281		0.933093
        0.642500		0.453669		0.893557		0.297128		0.002281		0.933160
        0.647500		0.453755		0.893544		0.297124		0.002280		0.933241
        0.652500		0.453802		0.893549		0.297117		0.002280		0.933306
        0.657500		0.453804		0.893559		0.297110		0.002280		0.933329
        0.662500		0.453774		0.893574		0.297108		0.002280		0.933317
        0.667500		0.453646		0.893601		0.297106		0.002281		0.933216
        0.672500		0.453280		0.893660		0.297102		0.002283		0.932908
        0.677500		0.452429		0.893784		0.297091		0.002287		0.932177
        0.682500		0.450682		0.894025		0.297072		0.002296		0.930656
        0.687500		0.447418		0.894457		0.297045		0.002312		0.927772
        0.692500		0.441788		0.895180		0.297010		0.002341		0.922716
        0.697500		0.432773		0.896308		0.296969		0.002390		0.914465
        0.702500		0.419343		0.897944		0.296924		0.002466		0.901877
        0.707500		0.400719		0.900153		0.296873		0.002580		0.883868
        0.712500		0.376706		0.902936		0.296807		0.002744		0.859721
        0.717500		0.348251		0.906200		0.296689		0.002967		0.829767
        0.722500		0.318632		0.909516		0.296542		0.003241		0.796797
        0.727500		0.293849		0.911997		0.296548		0.003515		0.767263
        0.732500		0.277952		0.912916		0.296608		0.003716		0.746897
        0.737500		0.269653		0.913058		0.296664		0.003831		0.735706
        0.742500		0.265893		0.913006		0.296728		0.003886		0.730438
        0.747500		0.264424		0.912918		0.296781		0.003909		0.728282
        0.752500		0.263983		0.912827		0.296810		0.003916		0.727567
        0.757500		0.263922		0.912755		0.296826		0.003917		0.727406
        0.762500		0.263972		0.912721		0.296834		0.003916		0.727438
        0.767500		0.264182		0.912690		0.296838		0.003913		0.727699
        0.772500		0.264627		0.912649		0.296837		0.003906		0.728280
        0.777500		0.265200		0.912596		0.296840		0.003898		0.729021
        0.782500		0.265570		0.912611		0.296833		0.003893		0.729549
        0.787500		0.265706		0.912629		0.296826		0.003890		0.729760
        0.792500		0.265739		0.912641		0.296822		0.003890		0.729820
        0.797500		0.265739		0.912646		0.296818		0.003890		0.729828
        0.802500		0.265722		0.912648		0.296815		0.003890		0.729810
        0.807500		0.265670		0.912650		0.296813		0.003891		0.729743
        0.812500		0.265574		0.912653		0.296809		0.003892		0.729619
        0.817500		0.265466		0.912651		0.296804		0.003894		0.729476
        0.822500		0.265411		0.912642		0.296803		0.003895		0.729393
        0.827500		0.265395		0.912632		0.296803		0.003895		0.729364
        0.832500		0.265394		0.912626		0.296803		0.003895		0.729357
        0.837500		0.265398		0.912624		0.296804		0.003895		0.729360
        0.842500		0.265410		0.912623		0.296804		0.003895		0.729375
        0.847500		0.265428		0.912623		0.296804		0.003894		0.729400
        0.852500		0.265442		0.912621		0.296803		0.003894		0.729419
        0.857500		0.265448		0.912616		0.296801		0.003894		0.729425
        0.862500		0.265449		0.912604		0.296797		0.003894		0.729422
        0.867500		0.265446		0.912585		0.296790		0.003894		0.729411
        0.872500		0.265435		0.912557		0.296780		0.003894		0.729386
        0.877500		0.265418		0.912524		0.296769		0.003894		0.729349
        0.882500		0.265398		0.912495		0.296760		0.003894		0.729311
        0.887500		0.265381		0.912471		0.296752		0.003894		0.729279
        0.892500		0.265367		0.912446		0.296743		0.003894		0.729250
        0.897500		0.265353		0.912399		0.296727		0.003894		0.729213
        0.902500		0.265324		0.912271		0.296679		0.003894		0.729129
        0.907500		0.265227		0.911825		0.296513		0.003893		0.728844
        0.912500		0.264858		0.910175		0.295900		0.003891		0.727771
        0.917500		0.263458		0.903992		0.293616		0.003881		0.723712
        0.922500		0.258285		0.880917		0.285234		0.003846		0.708467
        0.927500		0.240546		0.796350		0.257026		0.003721		0.651104
        0.932500		0.193764		0.532421		0.188017		0.003379		0.456803
        0.937500		0.141785		0.149765		0.119278		0.002930		0.138001
        0.942500		0.127668		0.023600		0.102871		0.002806		0.022220
        0.947500		0.125415		0.003626		0.100434		0.002789		0.003424
        0.952500		0.125063		0.000548		0.100065		0.002786		0.000518
        0.957500		0.125010		0.000083		0.100010		0.002786		0.000078
        0.962500		0.125001		0.000012		0.100001		0.002786		0.000012
        0.967500		0.125000		0.000002		0.100000		0.002786		0.000002
        0.972500		0.125000		0.000000		0.100000		0.002786		0.000000
        0.977500		0.125000		0.000000		0.100000		0.002786		0.000000
        0.982500		0.125000		0.000000		0.100000		0.002786		0.000000
        0.987500		0.125000		0.000000		0.100000		0.002786		0.000000
        0.992500		0.125000		0.000000		0.100000		0.002786		0.000000
        0.997500		0.125000		0.000000		0.100000		0.002786		0.000000
