 VARIABLES = "X", "Rho", "U", "P", "T"
 ZONE I=        5000
   0.9999999999998899E-04   0.1000000000000000E+01   0.0000000000000000E+00   0.9999999776482582E-02   0.3484320479610656E-04
   0.3000000000000225E-03   0.1000000000000000E+01   0.0000000000000000E+00   0.9999999776482582E-02   0.3484320479610656E-04
   0.5000000000000004E-03   0.1000000000000000E+01   0.0000000000000000E+00   0.9999999776482582E-02   0.3484320479610656E-04
   0.6999999999999784E-03   0.1000000000000000E+01   0.0000000000000000E+00   0.9999999776482582E-02   0.3484320479610656E-04
   0.9000000000000119E-03   0.1000000000000000E+01   0.0000000000000000E+00   0.9999999776482582E-02   0.3484320479610656E-04
   0.1099999999999990E-02   0.1000000000000000E+01   0.0000000000000000E+00   0.9999999776482582E-02   0.3484320479610656E-04
   0.1300000000000023E-02   0.1000000000000000E+01   0.0000000000000000E+00   0.9999999776482582E-02   0.3484320479610656E-04
   0.1500000000000001E-02   0.1000000000000000E+01   0.0000000000000000E+00   0.9999999776482582E-02   0.3484320479610656E-04
   0.1699999999999979E-02   0.1000000000000000E+01   0.0000000000000000E+00   0.9999999776482582E-02   0.3484320479610656E-04
   0.1900000000000013E-02   0.1000000000000000E+01   0.0000000000000000E+00   0.9999999776482582E-02   0.3484320479610656E-04
   0.2099999999999991E-02   0.1000000000000000E+01   0.0000000000000000E+00   0.9999999776482582E-02   0.3484320479610656E-04
   0.2300000000000024E-02   0.1000000000000000E+01   0.0000000000000000E+00   0.9999999776482582E-02   0.3484320479610656E-04
   0.2500000000000002E-02   0.1000000000000000E+01   0.0000000000000000E+00   0.9999999776482582E-02   0.3484320479610656E-04
   0.2699999999999980E-02   0.1000000000000000E+01   0.0000000000000000E+00   0.9999999776482582E-02   0.3484320479610656E-04
   0.2900000000000014E-02   0.1000000000000000E+01   0.0000000000000000E+00   0.9999999776482582E-02   0.3484320479610656E-04
   0.3099999999999992E-02   0.1000000000000000E+01   0.0000000000000000E+00   0.9999999776482582E-02   0.3484320479610656E-04
   0.3300000000000025E-02   0.1000000000000000E+01   0.0000000000000000E+00   0.9999999776482582E-02   0.3484320479610656E-04
   0.3500000000000003E-02   0.1000000000000000E+01   0.0000000000000000E+00   0.9999999776482582E-02   0.3484320479610656E-04
   0.3699999999999981E-02   0.1000000000000000E+01   0.0000000000000000E+00   0.9999999776482582E-02   0.3484320479610656E-04
   0.3900000000000015E-02   0.1000000000000000E+01   0.0000000000000000E+00   0.9999999776482582E-02   0.3484320479610656E-04
   0.4099999999999993E-02   0.1000000000000000E+01   0.0000000000000000E+00   0.9999999776482582E-02   0.3484320479610656E-04
   0.4300000000000026E-02   0.1000000000000000E+01   0.0000000000000000E+00   0.9999999776482582E-02   0.3484320479610656E-04
   0.4500000000000004E-02   0.1000000000000000E+01   0.0000000000000000E+00   0.9999999776482582E-02   0.3484320479610656E-04
   0.4699999999999982E-02   0.1000000000000000E+01   0.0000000000000000E+00   0.9999999776482582E-02   0.3484320479610656E-04
   0.4900000000000015E-02   0.1000000000000000E+01   0.0000000000000000E+00   0.9999999776482582E-02   0.3484320479610656E-04
   0.5099999999999993E-02   0.1000000000000000E+01   0.0000000000000000E+00   0.9999999776482582E-02   0.3484320479610656E-04
   0.5299999999999971E-02   0.1000000000000000E+01   0.0000000000000000E+00   0.9999999776482582E-02   0.3484320479610656E-04
   0.5500000000000005E-02   0.1000000000000000E+01   0.0000000000000000E+00   0.9999999776482582E-02   0.3484320479610656E-04
   0.5699999999999983E-02   0.1000000000000000E+01   0.0000000000000000E+00   0.9999999776482582E-02   0.3484320479610656E-04
   0.5900000000000016E-02   0.1000000000000000E+01   0.0000000000000000E+00   0.9999999776482582E-02   0.3484320479610656E-04
   0.6099999999999994E-02   0.1000000000000000E+01   0.0000000000000000E+00   0.9999999776482582E-02   0.3484320479610656E-04
   0.6299999999999972E-02   0.1000000000000000E+01   0.0000000000000000E+00   0.9999999776482582E-02   0.3484320479610656E-04
   0.6500000000000006E-02   0.1000000000000000E+01   0.0000000000000000E+00   0.9999999776482582E-02   0.3484320479610656E-04
   0.6699999999999984E-02   0.1000000000000000E+01   0.0000000000000000E+00   0.9999999776482582E-02   0.3484320479610656E-04
   0.6900000000000017E-02   0.1000000000000000E+01   0.0000000000000000E+00   0.9999999776482582E-02   0.3484320479610656E-04
   0.7099999999999995E-02   0.1000000000000000E+01   0.0000000000000000E+00   0.9999999776482582E-02   0.3484320479610656E-04
   0.7299999999999973E-02   0.1000000000000000E+01   0.0000000000000000E+00   0.9999999776482582E-02   0.3484320479610656E-04
   0.7500000000000007E-02   0.1000000000000000E+01   0.0000000000000000E+00   0.9999999776482582E-02   0.3484320479610656E-04
   0.7699999999999985E-02   0.1000000000000000E+01   0.0000000000000000E+00   0.9999999776482582E-02   0.3484320479610656E-04
   0.7900000000000018E-02   0.1000000000000000E+01   0.0000000000000000E+00   0.9999999776482582E-02   0.3484320479610656E-04
   0.8099999999999996E-02   0.1000000000000000E+01   0.0000000000000000E+00   0.9999999776482582E-02   0.3484320479610656E-04
   0.8299999999999974E-02   0.1000000000000000E+01   0.0000000000000000E+00   0.9999999776482582E-02   0.3484320479610656E-04
   0.8500000000000008E-02   0.1000000000000000E+01   0.0000000000000000E+00   0.9999999776482582E-02   0.3484320479610656E-04
   0.8699999999999986E-02   0.1000000000000000E+01   0.0000000000000000E+00   0.9999999776482582E-02   0.3484320479610656E-04
   0.8900000000000019E-02   0.1000000000000000E+01   0.0000000000000000E+00   0.9999999776482582E-02   0.3484320479610656E-04
   0.9099999999999997E-02   0.1000000000000000E+01   0.0000000000000000E+00   0.9999999776482582E-02   0.3484320479610656E-04
   0.9299999999999975E-02   0.1000000000000000E+01   0.0000000000000000E+00   0.9999999776482582E-02   0.3484320479610656E-04
   0.9500000000000008E-02   0.1000000000000000E+01   0.0000000000000000E+00   0.9999999776482582E-02   0.3484320479610656E-04
   0.9699999999999986E-02   0.1000000000000000E+01   0.0000000000000000E+00   0.9999999776482582E-02   0.3484320479610656E-04
   0.9900000000000020E-02   0.1000000000000000E+01   0.0000000000000000E+00   0.9999999776482582E-02   0.3484320479610656E-04
   0.1010000000000000E-01   0.1000000000000000E+01   0.0000000000000000E+00   0.9999999776482582E-02   0.3484320479610656E-04
   0.1029999999999998E-01   0.1000000000000000E+01   0.0000000000000000E+00   0.9999999776482582E-02   0.3484320479610656E-04
   0.1050000000000001E-01   0.1000000000000000E+01   0.0000000000000000E+00   0.9999999776482582E-02   0.3484320479610656E-04
   0.1069999999999999E-01   0.1000000000000000E+01   0.0000000000000000E+00   0.9999999776482582E-02   0.3484320479610656E-04
   0.1090000000000002E-01   0.1000000000000000E+01   0.0000000000000000E+00   0.9999999776482582E-02   0.3484320479610656E-04
   0.1110000000000000E-01   0.1000000000000000E+01   0.0000000000000000E+00   0.9999999776482582E-02   0.3484320479610656E-04
   0.1129999999999998E-01   0.1000000000000000E+01   0.0000000000000000E+00   0.9999999776482582E-02   0.3484320479610656E-04
   0.1150000000000001E-01   0.1000000000000000E+01   0.0000000000000000E+00   0.9999999776482582E-02   0.3484320479610656E-04
   0.1169999999999999E-01   0.1000000000000000E+01   0.0000000000000000E+00   0.9999999776482582E-02   0.3484320479610656E-04
   0.1190000000000002E-01   0.1000000000000000E+01   0.0000000000000000E+00   0.9999999776482582E-02   0.3484320479610656E-04
   0.1210000000000000E-01   0.1000000000000000E+01   0.0000000000000000E+00   0.9999999776482582E-02   0.3484320479610656E-04
   0.1230000000000003E-01   0.1000000000000000E+01   0.0000000000000000E+00   0.9999999776482582E-02   0.3484320479610656E-04
   0.1250000000000001E-01   0.1000000000000000E+01   0.0000000000000000E+00   0.9999999776482582E-02   0.3484320479610656E-04
   0.1269999999999999E-01   0.1000000000000000E+01   0.0000000000000000E+00   0.9999999776482582E-02   0.3484320479610656E-04
   0.1290000000000002E-01   0.1000000000000000E+01   0.0000000000000000E+00   0.9999999776482582E-02   0.3484320479610656E-04
   0.1310000000000000E-01   0.1000000000000000E+01   0.0000000000000000E+00   0.9999999776482582E-02   0.3484320479610656E-04
   0.1330000000000003E-01   0.1000000000000000E+01   0.0000000000000000E+00   0.9999999776482582E-02   0.3484320479610656E-04
   0.1350000000000001E-01   0.1000000000000000E+01   0.0000000000000000E+00   0.9999999776482582E-02   0.3484320479610656E-04
   0.1369999999999999E-01   0.1000000000000000E+01   0.0000000000000000E+00   0.9999999776482582E-02   0.3484320479610656E-04
   0.1390000000000002E-01   0.1000000000000000E+01   0.0000000000000000E+00   0.9999999776482582E-02   0.3484320479610656E-04
   0.1410000000000000E-01   0.1000000000000000E+01   0.0000000000000000E+00   0.9999999776482582E-02   0.3484320479610656E-04
   0.1430000000000003E-01   0.1000000000000000E+01   0.0000000000000000E+00   0.9999999776482582E-02   0.3484320479610656E-04
   0.1450000000000001E-01   0.1000000000000000E+01   0.0000000000000000E+00   0.9999999776482582E-02   0.3484320479610656E-04
   0.1469999999999999E-01   0.1000000000000000E+01   0.0000000000000000E+00   0.9999999776482582E-02   0.3484320479610656E-04
   0.1490000000000002E-01   0.1000000000000000E+01   0.0000000000000000E+00   0.9999999776482582E-02   0.3484320479610656E-04
   0.1510000000000000E-01   0.1000000000000000E+01   0.0000000000000000E+00   0.9999999776482582E-02   0.3484320479610656E-04
   0.1530000000000004E-01   0.1000000000000000E+01   0.0000000000000000E+00   0.9999999776482582E-02   0.3484320479610656E-04
   0.1550000000000001E-01   0.1000000000000000E+01   0.0000000000000000E+00   0.9999999776482582E-02   0.3484320479610656E-04
   0.1569999999999999E-01   0.1000000000000000E+01   0.0000000000000000E+00   0.9999999776482582E-02   0.3484320479610656E-04
   0.1590000000000003E-01   0.1000000000000000E+01   0.0000000000000000E+00   0.9999999776482582E-02   0.3484320479610656E-04
   0.1610000000000000E-01   0.1000000000000000E+01   0.0000000000000000E+00   0.9999999776482582E-02   0.3484320479610656E-04
   0.1630000000000004E-01   0.1000000000000000E+01   0.0000000000000000E+00   0.9999999776482582E-02   0.3484320479610656E-04
   0.1650000000000001E-01   0.1000000000000000E+01   0.0000000000000000E+00   0.9999999776482582E-02   0.3484320479610656E-04
   0.1669999999999999E-01   0.1000000000000000E+01   0.0000000000000000E+00   0.9999999776482582E-02   0.3484320479610656E-04
   0.1690000000000003E-01   0.1000000000000000E+01   0.0000000000000000E+00   0.9999999776482582E-02   0.3484320479610656E-04
   0.1710000000000000E-01   0.1000000000000000E+01   0.0000000000000000E+00   0.9999999776482582E-02   0.3484320479610656E-04
   0.1729999999999998E-01   0.1000000000000000E+01   0.0000000000000000E+00   0.9999999776482582E-02   0.3484320479610656E-04
   0.1750000000000002E-01   0.1000000000000000E+01   0.0000000000000000E+00   0.9999999776482582E-02   0.3484320479610656E-04
   0.1769999999999999E-01   0.1000000000000000E+01   0.0000000000000000E+00   0.9999999776482582E-02   0.3484320479610656E-04
   0.1790000000000003E-01   0.1000000000000000E+01   0.0000000000000000E+00   0.9999999776482582E-02   0.3484320479610656E-04
   0.1810000000000000E-01   0.1000000000000000E+01   0.0000000000000000E+00   0.9999999776482582E-02   0.3484320479610656E-04
   0.1829999999999998E-01   0.1000000000000000E+01   0.0000000000000000E+00   0.9999999776482582E-02   0.3484320479610656E-04
   0.1850000000000002E-01   0.1000000000000000E+01   0.0000000000000000E+00   0.9999999776482582E-02   0.3484320479610656E-04
   0.1869999999999999E-01   0.1000000000000000E+01   0.0000000000000000E+00   0.9999999776482582E-02   0.3484320479610656E-04
   0.1889999999999997E-01   0.1000000000000000E+01   0.0000000000000000E+00   0.9999999776482582E-02   0.3484320479610656E-04
   0.1910000000000001E-01   0.1000000000000000E+01   0.0000000000000000E+00   0.9999999776482582E-02   0.3484320479610656E-04
   0.1929999999999998E-01   0.1000000000000000E+01   0.0000000000000000E+00   0.9999999776482582E-02   0.3484320479610656E-04
   0.1950000000000002E-01   0.1000000000000000E+01   0.0000000000000000E+00   0.9999999776482582E-02   0.3484320479610656E-04
   0.1970000000000000E-01   0.1000000000000000E+01   0.0000000000000000E+00   0.9999999776482582E-02   0.3484320479610656E-04
   0.1989999999999997E-01   0.1000000000000000E+01   0.0000000000000000E+00   0.9999999776482582E-02   0.3484320479610656E-04
   0.2010000000000001E-01   0.1000000000000000E+01   0.0000000000000000E+00   0.9999999776482582E-02   0.3484320479610656E-04
   0.2029999999999998E-01   0.1000000000000000E+01   0.0000000000000000E+00   0.9999999776482582E-02   0.3484320479610656E-04
   0.2049999999999996E-01   0.1000000000000000E+01   0.0000000000000000E+00   0.9999999776482582E-02   0.3484320479610656E-04
   0.2070000000000000E-01   0.1000000000000000E+01   0.0000000000000000E+00   0.9999999776482582E-02   0.3484320479610656E-04
   0.2089999999999997E-01   0.1000000000000000E+01   0.0000000000000000E+00   0.9999999776482582E-02   0.3484320479610656E-04
   0.2110000000000001E-01   0.1000000000000000E+01   0.0000000000000000E+00   0.9999999776482582E-02   0.3484320479610656E-04
   0.2129999999999999E-01   0.1000000000000000E+01   0.0000000000000000E+00   0.9999999776482582E-02   0.3484320479610656E-04
   0.2149999999999996E-01   0.1000000000000000E+01   0.0000000000000000E+00   0.9999999776482582E-02   0.3484320479610656E-04
   0.2170000000000000E-01   0.1000000000000000E+01   0.0000000000000000E+00   0.9999999776482582E-02   0.3484320479610656E-04
   0.2189999999999998E-01   0.1000000000000000E+01   0.0000000000000000E+00   0.9999999776482582E-02   0.3484320479610656E-04
   0.2209999999999995E-01   0.1000000000000000E+01   0.0000000000000000E+00   0.9999999776482582E-02   0.3484320479610656E-04
   0.2229999999999999E-01   0.1000000000000000E+01   0.0000000000000000E+00   0.9999999776482582E-02   0.3484320479610656E-04
   0.2249999999999996E-01   0.1000000000000000E+01   0.0000000000000000E+00   0.9999999776482582E-02   0.3484320479610656E-04
   0.2270000000000000E-01   0.1000000000000000E+01   0.0000000000000000E+00   0.9999999776482582E-02   0.3484320479610656E-04
   0.2289999999999998E-01   0.1000000000000000E+01   0.0000000000000000E+00   0.9999999776482582E-02   0.3484320479610656E-04
   0.2309999999999995E-01   0.1000000000000000E+01   0.0000000000000000E+00   0.9999999776482582E-02   0.3484320479610656E-04
   0.2329999999999999E-01   0.1000000000000000E+01   0.0000000000000000E+00   0.9999999776482582E-02   0.3484320479610656E-04
   0.2349999999999997E-01   0.1000000000000000E+01   0.0000000000000000E+00   0.9999999776482582E-02   0.3484320479610656E-04
   0.2369999999999994E-01   0.1000000000000000E+01   0.0000000000000000E+00   0.9999999776482582E-02   0.3484320479610656E-04
   0.2389999999999998E-01   0.1000000000000000E+01   0.0000000000000000E+00   0.9999999776482582E-02   0.3484320479610656E-04
   0.2409999999999995E-01   0.1000000000000000E+01   0.0000000000000000E+00   0.9999999776482582E-02   0.3484320479610656E-04
   0.2429999999999999E-01   0.1000000000000000E+01   0.0000000000000000E+00   0.9999999776482582E-02   0.3484320479610656E-04
   0.2449999999999997E-01   0.1000000000000000E+01   0.0000000000000000E+00   0.9999999776482582E-02   0.3484320479610656E-04
   0.2469999999999994E-01   0.1000000000000000E+01   0.0000000000000000E+00   0.9999999776482582E-02   0.3484320479610656E-04
   0.2489999999999998E-01   0.1000000000000000E+01   0.0000000000000000E+00   0.9999999776482582E-02   0.3484320479610656E-04
   0.2509999999999996E-01   0.1000000000000000E+01   0.0000000000000000E+00   0.9999999776482582E-02   0.3484320479610656E-04
   0.2529999999999993E-01   0.1000000000000000E+01   0.0000000000000000E+00   0.9999999776482582E-02   0.3484320479610656E-04
   0.2549999999999997E-01   0.1000000000000000E+01   0.0000000000000000E+00   0.9999999776482582E-02   0.3484320479610656E-04
   0.2569999999999995E-01   0.1000000000000000E+01   0.0000000000000000E+00   0.9999999776482582E-02   0.3484320479610656E-04
   0.2589999999999998E-01   0.1000000000000000E+01   0.0000000000000000E+00   0.9999999776482582E-02   0.3484320479610656E-04
   0.2609999999999996E-01   0.1000000000000000E+01   0.0000000000000000E+00   0.9999999776482582E-02   0.3484320479610656E-04
   0.2629999999999993E-01   0.1000000000000000E+01   0.0000000000000000E+00   0.9999999776482582E-02   0.3484320479610656E-04
   0.2649999999999997E-01   0.1000000000000000E+01   0.0000000000000000E+00   0.9999999776482582E-02   0.3484320479610656E-04
   0.2669999999999995E-01   0.1000000000000000E+01   0.0000000000000000E+00   0.9999999776482582E-02   0.3484320479610656E-04
   0.2689999999999992E-01   0.1000000000000000E+01   0.0000000000000000E+00   0.9999999776482582E-02   0.3484320479610656E-04
   0.2709999999999996E-01   0.1000000000000000E+01   0.0000000000000000E+00   0.9999999776482582E-02   0.3484320479610656E-04
   0.2729999999999994E-01   0.1000000000000000E+01   0.0000000000000000E+00   0.9999999776482582E-02   0.3484320479610656E-04
   0.2749999999999997E-01   0.1000000000000000E+01   0.0000000000000000E+00   0.9999999776482582E-02   0.3484320479610656E-04
   0.2769999999999995E-01   0.1000000000000000E+01   0.0000000000000000E+00   0.9999999776482582E-02   0.3484320479610656E-04
   0.2789999999999992E-01   0.1000000000000000E+01   0.0000000000000000E+00   0.9999999776482582E-02   0.3484320479610656E-04
   0.2809999999999996E-01   0.1000000000000000E+01   0.0000000000000000E+00   0.9999999776482582E-02   0.3484320479610656E-04
   0.2829999999999994E-01   0.1000000000000000E+01   0.0000000000000000E+00   0.9999999776482582E-02   0.3484320479610656E-04
   0.2849999999999991E-01   0.1000000000000000E+01   0.0000000000000000E+00   0.9999999776482582E-02   0.3484320479610656E-04
   0.2869999999999995E-01   0.1000000000000000E+01   0.0000000000000000E+00   0.9999999776482582E-02   0.3484320479610656E-04
   0.2889999999999993E-01   0.1000000000000000E+01   0.0000000000000000E+00   0.9999999776482582E-02   0.3484320479610656E-04
   0.2909999999999996E-01   0.1000000000000000E+01   0.0000000000000000E+00   0.9999999776482582E-02   0.3484320479610656E-04
   0.2929999999999994E-01   0.1000000000000000E+01   0.0000000000000000E+00   0.9999999776482582E-02   0.3484320479610656E-04
   0.2949999999999992E-01   0.1000000000000000E+01   0.0000000000000000E+00   0.9999999776482582E-02   0.3484320479610656E-04
   0.2969999999999995E-01   0.1000000000000000E+01   0.0000000000000000E+00   0.9999999776482582E-02   0.3484320479610656E-04
   0.2989999999999993E-01   0.1000000000000000E+01   0.0000000000000000E+00   0.9999999776482582E-02   0.3484320479610656E-04
   0.3009999999999990E-01   0.1000000000000000E+01   0.0000000000000000E+00   0.9999999776482582E-02   0.3484320479610656E-04
   0.3029999999999994E-01   0.1000000000000000E+01   0.0000000000000000E+00   0.9999999776482582E-02   0.3484320479610656E-04
   0.3049999999999992E-01   0.1000000000000000E+01   0.0000000000000000E+00   0.9999999776482582E-02   0.3484320479610656E-04
   0.3069999999999995E-01   0.1000000000000000E+01   0.0000000000000000E+00   0.9999999776482582E-02   0.3484320479610656E-04
   0.3089999999999993E-01   0.1000000000000000E+01   0.0000000000000000E+00   0.9999999776482582E-02   0.3484320479610656E-04
   0.3109999999999991E-01   0.1000000000000000E+01   0.0000000000000000E+00   0.9999999776482582E-02   0.3484320479610656E-04
   0.3129999999999994E-01   0.1000000000000000E+01   0.0000000000000000E+00   0.9999999776482582E-02   0.3484320479610656E-04
   0.3149999999999992E-01   0.1000000000000000E+01   0.0000000000000000E+00   0.9999999776482582E-02   0.3484320479610656E-04
   0.3169999999999995E-01   0.1000000000000000E+01   0.0000000000000000E+00   0.9999999776482582E-02   0.3484320479610656E-04
   0.3189999999999993E-01   0.1000000000000000E+01   0.0000000000000000E+00   0.9999999776482582E-02   0.3484320479610656E-04
   0.3209999999999991E-01   0.1000000000000000E+01   0.0000000000000000E+00   0.9999999776482582E-02   0.3484320479610656E-04
   0.3229999999999994E-01   0.1000000000000000E+01   0.0000000000000000E+00   0.9999999776482582E-02   0.3484320479610656E-04
   0.3249999999999992E-01   0.1000000000000000E+01   0.0000000000000000E+00   0.9999999776482582E-02   0.3484320479610656E-04
   0.3269999999999990E-01   0.1000000000000000E+01   0.0000000000000000E+00   0.9999999776482582E-02   0.3484320479610656E-04
   0.3289999999999993E-01   0.1000000000000000E+01   0.0000000000000000E+00   0.9999999776482582E-02   0.3484320479610656E-04
   0.3309999999999991E-01   0.1000000000000000E+01   0.0000000000000000E+00   0.9999999776482582E-02   0.3484320479610656E-04
   0.3329999999999989E-01   0.1000000000000000E+01   0.0000000000000000E+00   0.9999999776482582E-02   0.3484320479610656E-04
   0.3349999999999992E-01   0.1000000000000000E+01   0.0000000000000000E+00   0.9999999776482582E-02   0.3484320479610656E-04
   0.3369999999999990E-01   0.1000000000000000E+01   0.0000000000000000E+00   0.9999999776482582E-02   0.3484320479610656E-04
   0.3389999999999993E-01   0.1000000000000000E+01   0.0000000000000000E+00   0.9999999776482582E-02   0.3484320479610656E-04
   0.3409999999999991E-01   0.1000000000000000E+01   0.0000000000000000E+00   0.9999999776482582E-02   0.3484320479610656E-04
   0.3429999999999989E-01   0.1000000000000000E+01   0.0000000000000000E+00   0.9999999776482582E-02   0.3484320479610656E-04
   0.3449999999999992E-01   0.1000000000000000E+01   0.0000000000000000E+00   0.9999999776482582E-02   0.3484320479610656E-04
   0.3469999999999990E-01   0.1000000000000000E+01   0.0000000000000000E+00   0.9999999776482582E-02   0.3484320479610656E-04
   0.3489999999999993E-01   0.1000000000000000E+01   0.0000000000000000E+00   0.9999999776482582E-02   0.3484320479610656E-04
   0.3509999999999991E-01   0.1000000000000000E+01   0.0000000000000000E+00   0.9999999776482582E-02   0.3484320479610656E-04
   0.3529999999999989E-01   0.1000000000000000E+01   0.0000000000000000E+00   0.9999999776482582E-02   0.3484320479610656E-04
   0.3549999999999992E-01   0.1000000000000000E+01   0.0000000000000000E+00   0.9999999776482582E-02   0.3484320479610656E-04
   0.3569999999999990E-01   0.1000000000000000E+01   0.0000000000000000E+00   0.9999999776482582E-02   0.3484320479610656E-04
   0.3589999999999988E-01   0.1000000000000000E+01   0.0000000000000000E+00   0.9999999776482582E-02   0.3484320479610656E-04
   0.3609999999999991E-01   0.1000000000000000E+01   0.0000000000000000E+00   0.9999999776482582E-02   0.3484320479610656E-04
   0.3629999999999989E-01   0.1000000000000000E+01   0.0000000000000000E+00   0.9999999776482582E-02   0.3484320479610656E-04
   0.3649999999999987E-01   0.1000000000000000E+01   0.0000000000000000E+00   0.9999999776482582E-02   0.3484320479610656E-04
   0.3669999999999990E-01   0.1000000000000000E+01   0.0000000000000000E+00   0.9999999776482582E-02   0.3484320479610656E-04
   0.3689999999999988E-01   0.1000000000000000E+01   0.0000000000000000E+00   0.9999999776482582E-02   0.3484320479610656E-04
   0.3709999999999991E-01   0.1000000000000000E+01   0.0000000000000000E+00   0.9999999776482582E-02   0.3484320479610656E-04
   0.3729999999999989E-01   0.1000000000000000E+01   0.0000000000000000E+00   0.9999999776482582E-02   0.3484320479610656E-04
   0.3749999999999987E-01   0.1000000000000000E+01   0.0000000000000000E+00   0.9999999776482582E-02   0.3484320479610656E-04
   0.3769999999999990E-01   0.1000000000000000E+01   0.0000000000000000E+00   0.9999999776482582E-02   0.3484320479610656E-04
   0.3789999999999988E-01   0.1000000000000000E+01   0.0000000000000000E+00   0.9999999776482582E-02   0.3484320479610656E-04
   0.3809999999999991E-01   0.1000000000000000E+01   0.0000000000000000E+00   0.9999999776482582E-02   0.3484320479610656E-04
   0.3829999999999989E-01   0.1000000000000000E+01   0.0000000000000000E+00   0.9999999776482582E-02   0.3484320479610656E-04
   0.3849999999999987E-01   0.1000000000000000E+01   0.0000000000000000E+00   0.9999999776482582E-02   0.3484320479610656E-04
   0.3869999999999990E-01   0.1000000000000000E+01   0.0000000000000000E+00   0.9999999776482582E-02   0.3484320479610656E-04
   0.3889999999999988E-01   0.1000000000000000E+01   0.0000000000000000E+00   0.9999999776482582E-02   0.3484320479610656E-04
   0.3909999999999986E-01   0.1000000000000000E+01   0.0000000000000000E+00   0.9999999776482582E-02   0.3484320479610656E-04
   0.3929999999999989E-01   0.1000000000000000E+01   0.0000000000000000E+00   0.9999999776482582E-02   0.3484320479610656E-04
   0.3949999999999987E-01   0.1000000000000000E+01   0.0000000000000000E+00   0.9999999776482582E-02   0.3484320479610656E-04
   0.3969999999999985E-01   0.1000000000000000E+01   0.0000000000000000E+00   0.9999999776482582E-02   0.3484320479610656E-04
   0.3989999999999988E-01   0.1000000000000000E+01   0.0000000000000000E+00   0.9999999776482582E-02   0.3484320479610656E-04
   0.4009999999999986E-01   0.1000000000000000E+01   0.0000000000000000E+00   0.9999999776482582E-02   0.3484320479610656E-04
   0.4029999999999989E-01   0.1000000000000000E+01   0.0000000000000000E+00   0.9999999776482582E-02   0.3484320479610656E-04
   0.4049999999999987E-01   0.1000000000000000E+01   0.0000000000000000E+00   0.9999999776482582E-02   0.3484320479610656E-04
   0.4069999999999985E-01   0.1000000000000000E+01   0.0000000000000000E+00   0.9999999776482582E-02   0.3484320479610656E-04
   0.4089999999999988E-01   0.1000000000000000E+01   0.0000000000000000E+00   0.9999999776482582E-02   0.3484320479610656E-04
   0.4109999999999986E-01   0.1000000000000000E+01   0.0000000000000000E+00   0.9999999776482582E-02   0.3484320479610656E-04
   0.4129999999999989E-01   0.1000000000000000E+01   0.0000000000000000E+00   0.9999999776482582E-02   0.3484320479610656E-04
   0.4149999999999987E-01   0.1000000000000000E+01   0.0000000000000000E+00   0.9999999776482582E-02   0.3484320479610656E-04
   0.4169999999999985E-01   0.1000000000000000E+01   0.0000000000000000E+00   0.9999999776482582E-02   0.3484320479610656E-04
   0.4189999999999988E-01   0.1000000000000000E+01   0.0000000000000000E+00   0.9999999776482582E-02   0.3484320479610656E-04
   0.4209999999999986E-01   0.1000000000000000E+01   0.0000000000000000E+00   0.9999999776482582E-02   0.3484320479610656E-04
   0.4229999999999984E-01   0.1000000000000000E+01   0.0000000000000000E+00   0.9999999776482582E-02   0.3484320479610656E-04
   0.4249999999999987E-01   0.1000000000000000E+01   0.0000000000000000E+00   0.9999999776482582E-02   0.3484320479610656E-04
   0.4269999999999985E-01   0.1000000000000000E+01   0.0000000000000000E+00   0.9999999776482582E-02   0.3484320479610656E-04
   0.4289999999999983E-01   0.1000000000000000E+01   0.0000000000000000E+00   0.9999999776482582E-02   0.3484320479610656E-04
   0.4309999999999986E-01   0.1000000000000000E+01   0.0000000000000000E+00   0.9999999776482582E-02   0.3484320479610656E-04
   0.4329999999999984E-01   0.1000000000000000E+01   0.0000000000000000E+00   0.9999999776482582E-02   0.3484320479610656E-04
   0.4349999999999987E-01   0.1000000000000000E+01   0.0000000000000000E+00   0.9999999776482582E-02   0.3484320479610656E-04
   0.4369999999999985E-01   0.1000000000000000E+01   0.0000000000000000E+00   0.9999999776482582E-02   0.3484320479610656E-04
   0.4389999999999983E-01   0.1000000000000000E+01   0.0000000000000000E+00   0.9999999776482582E-02   0.3484320479610656E-04
   0.4409999999999986E-01   0.1000000000000000E+01   0.0000000000000000E+00   0.9999999776482582E-02   0.3484320479610656E-04
   0.4429999999999984E-01   0.1000000000000000E+01   0.0000000000000000E+00   0.9999999776482582E-02   0.3484320479610656E-04
   0.4449999999999987E-01   0.1000000000000000E+01   0.0000000000000000E+00   0.9999999776482582E-02   0.3484320479610656E-04
   0.4469999999999985E-01   0.1000000000000000E+01   0.0000000000000000E+00   0.9999999776482582E-02   0.3484320479610656E-04
   0.4489999999999983E-01   0.1000000000000000E+01   0.0000000000000000E+00   0.9999999776482582E-02   0.3484320479610656E-04
   0.4509999999999986E-01   0.1000000000000000E+01   0.0000000000000000E+00   0.9999999776482582E-02   0.3484320479610656E-04
   0.4529999999999984E-01   0.1000000000000000E+01   0.0000000000000000E+00   0.9999999776482582E-02   0.3484320479610656E-04
   0.4549999999999982E-01   0.1000000000000000E+01   0.0000000000000000E+00   0.9999999776482582E-02   0.3484320479610656E-04
   0.4569999999999985E-01   0.1000000000000000E+01   0.0000000000000000E+00   0.9999999776482582E-02   0.3484320479610656E-04
   0.4589999999999983E-01   0.1000000000000000E+01   0.0000000000000000E+00   0.9999999776482582E-02   0.3484320479610656E-04
   0.4609999999999981E-01   0.1000000000000000E+01   0.0000000000000000E+00   0.9999999776482582E-02   0.3484320479610656E-04
   0.4629999999999984E-01   0.1000000000000000E+01   0.0000000000000000E+00   0.9999999776482582E-02   0.3484320479610656E-04
   0.4649999999999982E-01   0.1000000000000000E+01   0.0000000000000000E+00   0.9999999776482582E-02   0.3484320479610656E-04
   0.4669999999999985E-01   0.1000000000000000E+01   0.0000000000000000E+00   0.9999999776482582E-02   0.3484320479610656E-04
   0.4689999999999983E-01   0.1000000000000000E+01   0.0000000000000000E+00   0.9999999776482582E-02   0.3484320479610656E-04
   0.4709999999999981E-01   0.1000000000000000E+01   0.0000000000000000E+00   0.9999999776482582E-02   0.3484320479610656E-04
   0.4729999999999984E-01   0.1000000000000000E+01   0.0000000000000000E+00   0.9999999776482582E-02   0.3484320479610656E-04