Variables = X,Ro,U,P,T,M
Zone i = 200
        0.002500		1.000000		0.000000		0.010000		0.000035		0.000000
        0.007500		1.000000		0.000000		0.010000		0.000035		0.000000
        0.012500		1.000000		0.000000		0.010000		0.000035		0.000000
        0.017500		1.000000		0.000000		0.010000		0.000035		0.000000
        0.022500		1.000000		0.000000		0.010000		0.000035		0.000000
        0.027500		1.000000		0.000000		0.010000		0.000035		0.000000
        0.032500		1.000000		0.000000		0.010000		0.000035		0.000000
        0.037500		1.000000		0.000000		0.010000		0.000035		0.000000
        0.042500		1.000000		0.000000		0.010000		0.000035		0.000000
        0.047500		1.000000		0.000000		0.010000		0.000035		0.000000
        0.052500		1.000000		0.000000		0.010000		0.000035		0.000000
        0.057500		1.000000		0.000000		0.010000		0.000035		0.000000
        0.062500		1.000000		0.000000		0.010000		0.000035		0.000000
        0.067500		1.000000		0.000000		0.010000		0.000035		0.000000
        0.072500		1.000000		0.000000		0.010000		0.000035		0.000000
        0.077500		1.000000		0.000000		0.010000		0.000035		0.000000
        0.082500		1.000000		0.000000		0.010000		0.000035		0.000000
        0.087500		1.000000		0.000000		0.010000		0.000035		0.000000
        0.092500		1.000000		0.000000		0.010000		0.000035		0.000000
        0.097500		1.000000		0.000000		0.010000		0.000035		0.000000
        0.102500		1.000000		0.000000		0.010000		0.000035		0.000000
        0.107500		1.000000		0.000000		0.010000		0.000035		0.000000
        0.112500		1.000000		0.000000		0.010000		0.000035		0.000000
        0.117500		1.000000		0.000000		0.010000		0.000035		0.000000
        0.122500		1.000000		0.000000		0.010000		0.000035		0.000000
        0.127500		1.000000		0.000000		0.010000		0.000035		0.000000
        0.132500		1.000000		0.000000		0.010000		0.000035		0.000000
        0.137500		1.000000		0.000000		0.010000		0.000035		0.000000
        0.142500		1.000000		0.000000		0.010000		0.000035		0.000000
        0.147500		1.000000		0.000000		0.010000		0.000035		0.000000
        0.152500		1.000000		0.000000		0.010000		0.000035		0.000000
        0.157500		1.000000		0.000000		0.010000		0.000035		0.000000
        0.162500		1.000000		0.000000		0.010000		0.000035		0.000000
        0.167500		1.000000		0.000000		0.010000		0.000035		0.000000
        0.172500		1.000000		0.000000		0.010000		0.000035		0.000000
        0.177500		1.000000		-0.000000		0.010000		0.000035		-0.000000
        0.182500		1.000000		-0.000000		0.010000		0.000035		-0.000000
        0.187500		1.000000		-0.000000		0.010000		0.000035		-0.000000
        0.192500		1.000000		-0.000000		0.010000		0.000035		-0.000000
        0.197500		1.000000		-0.000000		0.010000		0.000035		-0.000000
        0.202500		1.000011		-0.000001		0.010000		0.000035		-0.000011
        0.207500		1.002357		-0.000485		0.010063		0.000035		-0.004093
        0.212500		1.045909		-0.047041		0.032878		0.000109		-0.224237
        0.217500		1.299048		-0.640319		0.881323		0.002363		-0.657018
        0.222500		1.959337		-2.178847		5.686133		0.010107		-1.080958
        0.227500		2.862339		-3.704353		14.707471		0.017894		-1.381147
        0.232500		3.683364		-4.738932		24.411050		0.023080		-1.555770
        0.237500		4.246421		-5.368321		32.327246		0.026512		-1.644378
        0.242500		4.534186		-5.740029		37.879760		0.029094		-1.678403
        0.247500		4.599478		-5.956688		41.427728		0.031368		-1.677450
        0.252500		4.506069		-6.081234		43.549221		0.033658		-1.653242
        0.257500		4.306633		-6.151456		44.748612		0.036186		-1.612847
        0.262500		4.039420		-6.190026		45.389464		0.039133		-1.560668
        0.267500		3.731151		-6.210528		45.709755		0.042665		-1.499621
        0.272500		3.400779		-6.221027		45.855649		0.046959		-1.431828
        0.277500		3.062414		-6.226218		45.912237		0.052212		-1.359027
        0.282500		2.727178		-6.228748		45.926420		0.058648		-1.282810
        0.287500		2.404166		-6.230041		45.922481		0.066522		-1.204749
        0.292500		2.100824		-6.230821		45.912079		0.076110		-1.126452
        0.297500		1.822985		-6.231427		45.900261		0.087687		-1.049560
        0.302500		1.574782		-6.232047		45.888548		0.101481		-0.975719
        0.307500		1.358620		-6.232699		45.877908		0.117600		-0.906482
        0.312500		1.175183		-6.233380		45.868526		0.135929		-0.843247
        0.317500		1.023590		-6.234091		45.860243		0.156032		-0.787144
        0.322500		0.901677		-6.234830		45.852854		0.177100		-0.738929
        0.327500		0.806335		-6.235594		45.846157		0.198011		-0.698908
        0.332500		0.733888		-6.236381		45.839968		0.217529		-0.666901
        0.337500		0.680446		-6.237192		45.834127		0.234583		-0.642285
        0.342500		0.642212		-6.238025		45.828502		0.248519		-0.624100
        0.347500		0.615712		-6.238883		45.822986		0.259184		-0.611209
        0.352500		0.597940		-6.239764		45.817496		0.266855		-0.602445
        0.357500		0.586425		-6.240672		45.811966		0.272062		-0.596739
        0.362500		0.579229		-6.241606		45.806348		0.275408		-0.593191
        0.367500		0.574903		-6.242567		45.800606		0.277446		-0.591100
        0.372500		0.572407		-6.243559		45.794714		0.278620		-0.589947
        0.377500		0.571033		-6.244581		45.788649		0.279253		-0.589374
        0.382500		0.570316		-6.245635		45.782396		0.279566		-0.589144
        0.387500		0.569966		-6.246723		45.775940		0.279699		-0.589107
        0.392500		0.569809		-6.247847		45.769268		0.279735		-0.589175
        0.397500		0.569748		-6.249009		45.762369		0.279723		-0.589297
        0.402500		0.569730		-6.250209		45.755229		0.279688		-0.589447
        0.407500		0.569726		-6.251452		45.747836		0.279645		-0.589610
        0.412500		0.569725		-6.252739		45.740175		0.279598		-0.589780
        0.417500		0.569721		-6.254072		45.732233		0.279552		-0.589955
        0.422500		0.569710		-6.255454		45.723993		0.279507		-0.590133
        0.427500		0.569694		-6.256888		45.715439		0.279462		-0.590315
        0.432500		0.569670		-6.258377		45.706551		0.279419		-0.590501
        0.437500		0.569641		-6.259924		45.697308		0.279378		-0.590691
        0.442500		0.569604		-6.261534		45.687690		0.279337		-0.590886
        0.447500		0.569562		-6.263210		45.677672		0.279296		-0.591087
        0.452500		0.569513		-6.264956		45.667226		0.279256		-0.591294
        0.457500		0.569457		-6.266778		45.656325		0.279217		-0.591508
        0.462500		0.569395		-6.268681		45.644935		0.279178		-0.591729
        0.467500		0.569326		-6.270671		45.633020		0.279139		-0.591958
        0.472500		0.569251		-6.272755		45.620542		0.279099		-0.592197
        0.477500		0.569168		-6.274940		45.607456		0.279060		-0.592445
        0.482500		0.569078		-6.277234		45.593711		0.279020		-0.592704
        0.487500		0.568980		-6.279647		45.579252		0.278979		-0.592975
        0.492500		0.568874		-6.282190		45.564016		0.278938		-0.593259
        0.497500		0.568759		-6.284874		45.547930		0.278896		-0.593557
        0.502500		0.568634		-6.287713		45.530912		0.278853		-0.593871
        0.507500		0.568500		-6.290723		45.512867		0.278808		-0.594203
        0.512500		0.568354		-6.293924		45.493685		0.278763		-0.594554
        0.517500		0.568195		-6.297335		45.473237		0.278715		-0.594927
        0.522500		0.568023		-6.300983		45.451374		0.278665		-0.595325
        0.527500		0.567836		-6.304896		45.427923		0.278613		-0.595750
        0.532500		0.567632		-6.309109		45.402682		0.278558		-0.596207
        0.537500		0.567410		-6.313659		45.375431		0.278500		-0.596699
        0.542500		0.567166		-6.318583		45.345944		0.278439		-0.597230
        0.547500		0.566901		-6.323912		45.314035		0.278373		-0.597804
        0.552500		0.566612		-6.329659		45.279652		0.278304		-0.598422
        0.557500		0.566303		-6.335780		45.243039		0.278231		-0.599080
        0.562500		0.565980		-6.342143		45.205010		0.278155		-0.599763
        0.567500		0.565660		-6.348457		45.167298		0.278080		-0.600440
        0.572500		0.565369		-6.354210		45.132960		0.278012		-0.601059
        0.577500		0.565150		-6.358615		45.106703		0.277958		-0.601534
        0.582500		0.565061		-6.360584		45.094993		0.277930		-0.601750
        0.587500		0.565172		-6.358786		45.105790		0.277941		-0.601568
        0.592500		0.565564		-6.351754		45.147874		0.278008		-0.600830
        0.597500		0.566311		-6.338062		45.229862		0.278146		-0.599387
        0.602500		0.567481		-6.316508		45.359154		0.278366		-0.597113
        0.607500		0.569120		-6.286261		45.541105		0.278677		-0.593921
        0.612500		0.571253		-6.246936		45.778603		0.279085		-0.589774
        0.617500		0.573881		-6.198579		46.072102		0.279588		-0.584682
        0.622500		0.576988		-6.141599		46.420014		0.280182		-0.578693
        0.627500		0.580544		-6.076660		46.819276		0.280861		-0.571882
        0.632500		0.584511		-6.004574		47.265940		0.281616		-0.564339
        0.637500		0.588847		-5.926207		47.755684		0.282439		-0.556162
        0.642500		0.593513		-5.842411		48.284182		0.283320		-0.547445
        0.647500		0.598468		-5.753983		48.847349		0.284251		-0.538275
        0.652500		0.603677		-5.661640		49.441473		0.285226		-0.528731
        0.657500		0.609111		-5.566013		50.063270		0.286236		-0.518882
        0.662500		0.614741		-5.467646		50.709888		0.287278		-0.508787
        0.667500		0.620544		-5.367005		51.378874		0.288346		-0.498496
        0.672500		0.626501		-5.264484		52.068140		0.289436		-0.488053
        0.677500		0.632594		-5.160419		52.775910		0.290544		-0.477492
        0.682500		0.638810		-5.055090		53.500679		0.291668		-0.466843
        0.687500		0.645136		-4.948737		54.241163		0.292806		-0.456133
        0.692500		0.651562		-4.841561		54.996268		0.293954		-0.445382
        0.697500		0.658079		-4.733735		55.765053		0.295111		-0.434608
        0.702500		0.664679		-4.625406		56.546702		0.296277		-0.423827
        0.707500		0.671355		-4.516702		57.340502		0.297448		-0.413050
        0.712500		0.678101		-4.407734		58.145823		0.298625		-0.402290
        0.717500		0.684912		-4.298599		58.962097		0.299806		-0.391556
        0.722500		0.691783		-4.189384		59.788809		0.300990		-0.380856
        0.727500		0.698710		-4.080165		60.625485		0.302176		-0.370198
        0.732500		0.705687		-3.971014		61.471675		0.303365		-0.359589
        0.737500		0.712712		-3.861994		62.326951		0.304554		-0.349033
        0.742500		0.719780		-3.753165		63.190899		0.305743		-0.338537
        0.747500		0.726889		-3.644585		64.063108		0.306932		-0.328106
        0.752500		0.734033		-3.536307		64.943166		0.308120		-0.317744
        0.757500		0.741210		-3.428383		65.830657		0.309306		-0.307455
        0.762500		0.748416		-3.320864		66.725151		0.310491		-0.297244
        0.767500		0.755647		-3.213801		67.626203		0.311672		-0.287116
        0.772500		0.762899		-3.107245		68.533348		0.312851		-0.277073
        0.777500		0.770168		-3.001246		69.446095		0.314025		-0.267120
        0.782500		0.777451		-2.895856		70.363923		0.315195		-0.257261
        0.787500		0.784742		-2.791129		71.286279		0.316360		-0.247501
        0.792500		0.792037		-2.687119		72.212570		0.317519		-0.237842
        0.797500		0.799332		-2.583883		73.142161		0.318671		-0.228291
        0.802500		0.806621		-2.481481		74.074372		0.319816		-0.218851
        0.807500		0.813898		-2.379976		75.008469		0.320954		-0.209526
        0.812500		0.821158		-2.279432		75.943666		0.322082		-0.200323
        0.817500		0.828394		-2.179919		76.879115		0.323202		-0.191245
        0.822500		0.835600		-2.081508		77.813905		0.324310		-0.182299
        0.827500		0.842769		-1.984276		78.747055		0.325408		-0.173490
        0.832500		0.849892		-1.888304		79.677515		0.326493		-0.164825
        0.837500		0.856963		-1.793676		80.604158		0.327565		-0.156308
        0.842500		0.863973		-1.700482		81.525776		0.328622		-0.147949
        0.847500		0.870912		-1.608817		82.441084		0.329664		-0.139752
        0.852500		0.877770		-1.518779		83.348708		0.330689		-0.131726
        0.857500		0.884539		-1.430471		84.247196		0.331696		-0.123878
        0.862500		0.891207		-1.344002		85.135009		0.332684		-0.116217
        0.867500		0.897762		-1.259484		86.010527		0.333651		-0.108751
        0.872500		0.904194		-1.177033		86.872054		0.334596		-0.101488
        0.877500		0.910491		-1.096769		87.717823		0.335517		-0.094438
        0.882500		0.916639		-1.018813		88.546006		0.336413		-0.087608
        0.887500		0.922626		-0.943290		89.354726		0.337282		-0.081009
        0.892500		0.928441		-0.870323		90.142070		0.338124		-0.074650
        0.897500		0.934068		-0.800036		90.906111		0.338935		-0.068539
        0.902500		0.939497		-0.732547		91.644933		0.339715		-0.062685
        0.907500		0.944714		-0.667973		92.356651		0.340463		-0.057097
        0.912500		0.949708		-0.606422		93.039447		0.341176		-0.051781
        0.917500		0.954468		-0.547992		93.691601		0.341854		-0.046746
        0.922500		0.958984		-0.492771		94.311531		0.342496		-0.041996
        0.927500		0.963246		-0.440830		94.897827		0.343100		-0.037536
        0.932500		0.967248		-0.392224		95.449291		0.343666		-0.033370
        0.937500		0.970983		-0.346988		95.964976		0.344194		-0.029499
        0.942500		0.974449		-0.305134		96.444222		0.344682		-0.025922
        0.947500		0.977645		-0.266650		96.886680		0.345132		-0.022638
        0.952500		0.980571		-0.231497		97.292344		0.345543		-0.019642
        0.957500		0.983230		-0.199611		97.661556		0.345916		-0.016927
        0.962500		0.985629		-0.170901		97.995017		0.346252		-0.014486
        0.967500		0.987777		-0.145249		98.293776		0.346553		-0.012306
        0.972500		0.989683		-0.122513		98.559212		0.346819		-0.010376
        0.977500		0.991360		-0.102532		98.793000		0.347054		-0.008681
        0.982500		0.992824		-0.085122		98.997074		0.347258		-0.007205
        0.987500		0.994088		-0.070090		99.173569		0.347435		-0.005931
        0.992500		0.995171		-0.057229		99.324775		0.347586		-0.004841
        0.997500		0.996089		-0.046330		99.453065		0.347714		-0.003919
