Variables = X,Ro,U,P,T,M
Zone i = 200
        0.002500		1.000000		0.000000		0.010000		0.000035		0.000000
        0.007500		1.000000		0.000000		0.010000		0.000035		0.000000
        0.012500		1.000000		0.000000		0.010000		0.000035		0.000000
        0.017500		1.000000		0.000000		0.010000		0.000035		0.000000
        0.022500		1.000000		0.000000		0.010000		0.000035		0.000000
        0.027500		1.000000		0.000000		0.010000		0.000035		0.000000
        0.032500		1.000000		0.000000		0.010000		0.000035		0.000000
        0.037500		1.000000		0.000000		0.010000		0.000035		0.000000
        0.042500		1.000000		0.000000		0.010000		0.000035		0.000000
        0.047500		1.000000		0.000000		0.010000		0.000035		0.000000
        0.052500		1.000000		0.000000		0.010000		0.000035		0.000000
        0.057500		1.000000		0.000000		0.010000		0.000035		0.000000
        0.062500		1.000000		0.000000		0.010000		0.000035		0.000000
        0.067500		1.000000		0.000000		0.010000		0.000035		0.000000
        0.072500		1.000000		0.000000		0.010000		0.000035		0.000000
        0.077500		1.000000		0.000000		0.010000		0.000035		0.000000
        0.082500		1.000000		0.000000		0.010000		0.000035		0.000000
        0.087500		1.000000		0.000000		0.010000		0.000035		0.000000
        0.092500		1.000000		0.000000		0.010000		0.000035		0.000000
        0.097500		1.000000		0.000000		0.010000		0.000035		0.000000
        0.102500		1.000000		0.000000		0.010000		0.000035		0.000000
        0.107500		1.000000		0.000000		0.010000		0.000035		0.000000
        0.112500		1.000000		0.000000		0.010000		0.000035		0.000000
        0.117500		1.000000		0.000000		0.010000		0.000035		0.000000
        0.122500		1.000000		0.000000		0.010000		0.000035		0.000000
        0.127500		1.000000		0.000000		0.010000		0.000035		0.000000
        0.132500		1.000000		0.000000		0.010000		0.000035		0.000000
        0.137500		1.000000		0.000000		0.010000		0.000035		0.000000
        0.142500		1.000000		0.000000		0.010000		0.000035		0.000000
        0.147500		1.000000		0.000000		0.010000		0.000035		0.000000
        0.152500		1.000000		0.000000		0.010000		0.000035		0.000000
        0.157500		1.000000		0.000000		0.010000		0.000035		0.000000
        0.162500		1.000000		0.000000		0.010000		0.000035		0.000000
        0.167500		1.000000		0.000000		0.010000		0.000035		0.000000
        0.172500		1.000000		0.000000		0.010000		0.000035		0.000000
        0.177500		1.000000		0.000000		0.010000		0.000035		0.000000
        0.182500		1.000000		0.000000		0.010000		0.000035		0.000000
        0.187500		1.000000		0.000000		0.010000		0.000035		0.000000
        0.192500		1.000000		0.000000		0.010000		0.000035		0.000000
        0.197500		1.000000		-0.000000		0.010000		0.000035		-0.000000
        0.202500		1.000000		-0.000000		0.010000		0.000035		-0.000000
        0.207500		1.000000		-0.000000		0.010000		0.000035		-0.000000
        0.212500		1.000000		-0.000000		0.010000		0.000035		-0.000000
        0.217500		1.000030		-0.000004		0.010000		0.000035		-0.000030
        0.222500		1.006349		-0.002416		0.010451		0.000036		-0.020035
        0.227500		1.115074		-0.224272		0.235031		0.000734		-0.412857
        0.232500		2.278419		-2.840714		8.609726		0.013160		-1.235053
        0.237500		4.558691		-5.239018		30.083841		0.022982		-1.723611
        0.242500		5.544637		-5.959065		41.639987		0.026154		-1.837788
        0.247500		5.731980		-6.141382		45.030907		0.027359		-1.851821
        0.252500		5.735082		-6.185933		45.880124		0.027860		-1.848412
        0.257500		5.673594		-6.196526		46.076232		0.028283		-1.837701
        0.262500		5.511899		-6.199032		46.113134		0.029136		-1.811332
        0.267500		5.177567		-6.199613		46.114621		0.031018		-1.755675
        0.272500		4.545465		-6.199606		46.105217		0.035324		-1.645183
        0.277500		3.623515		-6.199534		46.094061		0.044301		-1.469053
        0.282500		2.687000		-6.199615		46.086887		0.059733		-1.265161
        0.287500		1.936106		-6.199787		46.081854		0.082890		-1.074020
        0.292500		1.402549		-6.199935		46.077488		0.114412		-0.914193
        0.297500		1.052357		-6.200126		46.074236		0.152474		-0.791934
        0.302500		0.837047		-6.200407		46.072147		0.191686		-0.706337
        0.307500		0.712155		-6.200723		46.070497		0.225295		-0.651559
        0.312500		0.643500		-6.200997		46.068604		0.249321		-0.619397
        0.317500		0.607621		-6.201214		46.066336		0.264030		-0.601918
        0.322500		0.589753		-6.201438		46.063998		0.272015		-0.593038
        0.327500		0.581260		-6.201740		46.061975		0.275978		-0.588794
        0.332500		0.577402		-6.202133		46.060332		0.277812		-0.586885
        0.337500		0.575725		-6.202564		46.058727		0.278611		-0.586083
        0.342500		0.575027		-6.202961		46.056712		0.278938		-0.585777
        0.347500		0.574747		-6.203292		46.054103		0.279057		-0.585683
        0.352500		0.574643		-6.203603		46.051133		0.279090		-0.585678
        0.357500		0.574611		-6.203976		46.048248		0.279088		-0.585715
        0.362500		0.574608		-6.204460		46.045738		0.279074		-0.585775
        0.367500		0.574616		-6.205022		46.043416		0.279056		-0.585847
        0.372500		0.574621		-6.205582		46.040799		0.279038		-0.585919
        0.377500		0.574618		-6.206077		46.037530		0.279020		-0.585985
        0.382500		0.574594		-6.206521		46.033698		0.279008		-0.586040
        0.387500		0.574539		-6.207002		46.029758		0.279011		-0.586082
        0.392500		0.574489		-6.207602		46.026165		0.279014		-0.586136
        0.397500		0.574453		-6.208322		46.022902		0.279011		-0.586206
        0.402500		0.574425		-6.209084		46.019457		0.279004		-0.586286
        0.407500		0.574398		-6.209791		46.015278		0.278992		-0.586365
        0.412500		0.574368		-6.210426		46.010286		0.278976		-0.586442
        0.417500		0.574335		-6.211067		46.004944		0.278959		-0.586520
        0.422500		0.574299		-6.211828		45.999880		0.278946		-0.586606
        0.427500		0.574260		-6.212752		45.995310		0.278937		-0.586702
        0.432500		0.574216		-6.213769		45.990749		0.278931		-0.586805
        0.437500		0.574161		-6.214759		45.985423		0.278926		-0.586904
        0.442500		0.574091		-6.215657		45.978986		0.278921		-0.586994
        0.447500		0.574012		-6.216525		45.971850		0.278916		-0.587081
        0.452500		0.573943		-6.217503		45.964834		0.278907		-0.587183
        0.457500		0.573894		-6.218682		45.958460		0.278892		-0.587310
        0.462500		0.573859		-6.220019		45.952371		0.278872		-0.587457
        0.467500		0.573820		-6.221370		45.945577		0.278849		-0.587609
        0.472500		0.573760		-6.222621		45.937331		0.278829		-0.587749
        0.477500		0.573668		-6.223809		45.927850		0.278816		-0.587875
        0.482500		0.573563		-6.225106		45.918111		0.278808		-0.588005
        0.487500		0.573472		-6.226669		45.908993		0.278797		-0.588165
        0.492500		0.573396		-6.228498		45.900333		0.278781		-0.588354
        0.497500		0.573317		-6.230434		45.890902		0.278762		-0.588557
        0.502500		0.573217		-6.232301		45.879448		0.278741		-0.588755
        0.507500		0.573097		-6.234094		45.865912		0.278717		-0.588950
        0.512500		0.572971		-6.236003		45.851516		0.278691		-0.589158
        0.517500		0.572851		-6.238236		45.837697		0.278666		-0.589396
        0.522500		0.572732		-6.240828		45.824738		0.278645		-0.589663
        0.527500		0.572602		-6.243612		45.811309		0.278626		-0.589946
        0.532500		0.572451		-6.246369		45.795389		0.278603		-0.590231
        0.537500		0.572279		-6.249084		45.775906		0.278568		-0.590524
        0.542500		0.572091		-6.252082		45.753541		0.278524		-0.590855
        0.547500		0.571886		-6.255831		45.729752		0.278478		-0.591257
        0.552500		0.571660		-6.260556		45.704632		0.278435		-0.591749
        0.557500		0.571400		-6.266097		45.675950		0.278387		-0.592324
        0.562500		0.571085		-6.272136		45.640766		0.278326		-0.592960
        0.567500		0.570702		-6.278597		45.597966		0.278252		-0.593650
        0.572500		0.570262		-6.285759		45.549417		0.278170		-0.594415
        0.577500		0.569808		-6.293801		45.499217		0.278085		-0.595267
        0.582500		0.569393		-6.302139		45.452419		0.278002		-0.596144
        0.587500		0.569048		-6.309599		45.413089		0.277929		-0.596928
        0.592500		0.568759		-6.315635		45.380166		0.277869		-0.597563
        0.597500		0.568460		-6.320745		45.347174		0.277813		-0.598107
        0.602500		0.568082		-6.326212		45.306224		0.277747		-0.598696
        0.607500		0.567600		-6.334594		45.252236		0.277651		-0.599592
        0.612500		0.567101		-6.344458		45.196313		0.277552		-0.600633
        0.617500		0.566961		-6.347966		45.180376		0.277523		-0.600997
        0.622500		0.567044		-6.348591		45.189600		0.277539		-0.601039
        0.627500		0.567204		-6.343992		45.210445		0.277589		-0.600549
        0.632500		0.567701		-6.329822		45.259949		0.277649		-0.599143
        0.637500		0.569119		-6.310708		45.423170		0.277956		-0.597004
        0.642500		0.571177		-6.268688		45.651254		0.278345		-0.592614
        0.647500		0.574396		-6.209942		46.012479		0.278976		-0.586396
        0.652500		0.578632		-6.132283		46.488148		0.279796		-0.578213
        0.657500		0.583727		-6.039091		47.062292		0.280780		-0.568428
        0.662500		0.589471		-5.935008		47.712058		0.281882		-0.557538
        0.667500		0.595648		-5.823931		48.413440		0.283060		-0.545964
        0.672500		0.602100		-5.708876		49.149295		0.284283		-0.534026
        0.677500		0.608727		-5.591722		49.908352		0.285531		-0.521923
        0.682500		0.615470		-5.473552		50.684132		0.286792		-0.509768
        0.687500		0.622299		-5.354940		51.473177		0.288061		-0.497622
        0.692500		0.629197		-5.236173		52.273772		0.289334		-0.485514
        0.697500		0.636157		-5.117390		53.085124		0.290610		-0.473457
        0.702500		0.643175		-4.998656		53.906911		0.291889		-0.461457
        0.707500		0.650251		-4.879997		54.739042		0.293169		-0.449518
        0.712500		0.657384		-4.761425		55.581537		0.294451		-0.437640
        0.717500		0.664573		-4.642942		56.434472		0.295736		-0.425822
        0.722500		0.671820		-4.524549		57.297952		0.297022		-0.414065
        0.727500		0.679125		-4.406241		58.172093		0.298310		-0.402366
        0.732500		0.686488		-4.288015		59.057021		0.299599		-0.390726
        0.737500		0.693909		-4.169867		59.952865		0.300891		-0.379144
        0.742500		0.701390		-4.051794		60.859756		0.302185		-0.367619
        0.747500		0.708931		-3.933792		61.777826		0.303480		-0.356150
        0.752500		0.716532		-3.815857		62.707203		0.304778		-0.344736
        0.757500		0.724194		-3.697988		63.648016		0.306078		-0.333378
        0.762500		0.731917		-3.580181		64.600390		0.307380		-0.322073
        0.767500		0.739702		-3.462436		65.564446		0.308683		-0.310822
        0.772500		0.747549		-3.344751		66.540300		0.309989		-0.299625
        0.777500		0.755458		-3.227128		67.528063		0.311298		-0.288480
        0.782500		0.763430		-3.109566		68.527840		0.312608		-0.277388
        0.787500		0.771465		-2.992067		69.539729		0.313920		-0.266348
        0.792500		0.779563		-2.874634		70.563818		0.315234		-0.255360
        0.797500		0.787723		-2.757272		71.600185		0.316550		-0.244425
        0.802500		0.795946		-2.639984		72.648896		0.317868		-0.233542
        0.807500		0.804233		-2.522777		73.710005		0.319188		-0.222711
        0.812500		0.812581		-2.405660		74.783545		0.320510		-0.211934
        0.817500		0.820992		-2.288643		75.869531		0.321833		-0.201210
        0.822500		0.829464		-2.171736		76.967953		0.323158		-0.190540
        0.827500		0.837996		-2.054956		78.078771		0.324484		-0.179926
        0.832500		0.846588		-1.938319		79.201909		0.325811		-0.169367
        0.837500		0.855238		-1.821848		80.337245		0.327139		-0.158867
        0.842500		0.863945		-1.705568		81.484601		0.328467		-0.148426
        0.847500		0.872705		-1.589512		82.643726		0.329795		-0.138047
        0.852500		0.881515		-1.473718		83.814282		0.331124		-0.127734
        0.857500		0.890373		-1.358236		84.995809		0.332451		-0.117489
        0.862500		0.899273		-1.243128		86.187696		0.333776		-0.107319
        0.867500		0.908208		-1.128470		87.389127		0.335100		-0.097228
        0.872500		0.917172		-1.014363		88.599007		0.336419		-0.087225
        0.877500		0.926151		-0.900938		89.815856		0.337733		-0.077321
        0.882500		0.935132		-0.788372		91.037625		0.339039		-0.067529
        0.887500		0.944093		-0.676915		92.261353		0.340335		-0.057872
        0.892500		0.953000		-0.566960		93.482386		0.341617		-0.048380
        0.897500		0.961794		-0.459203		94.692406		0.342874		-0.039113
        0.902500		0.970354		-0.355065		95.874501		0.344092		-0.030190
        0.907500		0.978427		-0.257535		96.992971		0.345234		-0.021861
        0.912500		0.985544		-0.172067		97.982221		0.346237		-0.014585
        0.917500		0.991138		-0.105247		98.761566		0.347021		-0.008911
        0.922500		0.994953		-0.059840		99.294203		0.347555		-0.005063
        0.927500		0.997267		-0.032370		99.617651		0.347878		-0.002737
        0.932500		0.998572		-0.016902		99.800191		0.348060		-0.001429
        0.937500		0.999276		-0.008569		99.898659		0.348158		-0.000724
        0.942500		0.999643		-0.004229		99.949976		0.348209		-0.000357
        0.947500		0.999828		-0.002035		99.975919		0.348235		-0.000172
        0.952500		0.999919		-0.000957		99.988674		0.348247		-0.000081
        0.957500		0.999963		-0.000441		99.994788		0.348254		-0.000037
        0.962500		0.999983		-0.000199		99.997649		0.348256		-0.000017
        0.967500		0.999993		-0.000088		99.998960		0.348258		-0.000007
        0.972500		0.999997		-0.000038		99.999548		0.348258		-0.000003
        0.977500		0.999999		-0.000016		99.999807		0.348259		-0.000001
        0.982500		0.999999		-0.000007		99.999919		0.348259		-0.000001
        0.987500		1.000000		-0.000003		99.999967		0.348259		-0.000000
        0.992500		1.000000		-0.000001		99.999986		0.348259		-0.000000
        0.997500		1.000000		-0.000000		99.999996		0.348259		-0.000000
