Variables = X,Ro,U,P,T,M
Zone i = 200
        0.002500		1.000000		0.000000		0.010000		0.000035		0.000000
        0.007500		1.000000		0.000000		0.010000		0.000035		0.000000
        0.012500		1.000000		0.000000		0.010000		0.000035		0.000000
        0.017500		1.000000		0.000000		0.010000		0.000035		0.000000
        0.022500		1.000000		0.000000		0.010000		0.000035		0.000000
        0.027500		1.000000		0.000000		0.010000		0.000035		0.000000
        0.032500		1.000000		0.000000		0.010000		0.000035		0.000000
        0.037500		1.000000		0.000000		0.010000		0.000035		0.000000
        0.042500		1.000000		0.000000		0.010000		0.000035		0.000000
        0.047500		1.000000		0.000000		0.010000		0.000035		0.000000
        0.052500		1.000000		0.000000		0.010000		0.000035		0.000000
        0.057500		1.000000		0.000000		0.010000		0.000035		0.000000
        0.062500		1.000000		0.000000		0.010000		0.000035		0.000000
        0.067500		1.000000		0.000000		0.010000		0.000035		0.000000
        0.072500		1.000000		0.000000		0.010000		0.000035		0.000000
        0.077500		1.000000		0.000000		0.010000		0.000035		0.000000
        0.082500		1.000000		0.000000		0.010000		0.000035		0.000000
        0.087500		1.000000		0.000000		0.010000		0.000035		0.000000
        0.092500		1.000000		0.000000		0.010000		0.000035		0.000000
        0.097500		1.000000		0.000000		0.010000		0.000035		0.000000
        0.102500		1.000000		0.000000		0.010000		0.000035		0.000000
        0.107500		1.000000		0.000000		0.010000		0.000035		0.000000
        0.112500		1.000000		0.000000		0.010000		0.000035		0.000000
        0.117500		1.000000		0.000000		0.010000		0.000035		0.000000
        0.122500		1.000000		0.000000		0.010000		0.000035		0.000000
        0.127500		1.000000		0.000000		0.010000		0.000035		0.000000
        0.132500		1.000000		0.000000		0.010000		0.000035		0.000000
        0.137500		1.000000		0.000000		0.010000		0.000035		0.000000
        0.142500		1.000000		0.000000		0.010000		0.000035		0.000000
        0.147500		1.000000		0.000000		0.010000		0.000035		0.000000
        0.152500		1.000000		0.000000		0.010000		0.000035		0.000000
        0.157500		1.000000		0.000000		0.010000		0.000035		0.000000
        0.162500		1.000000		0.000000		0.010000		0.000035		0.000000
        0.167500		1.000000		0.000000		0.010000		0.000035		0.000000
        0.172500		1.000000		0.000000		0.010000		0.000035		0.000000
        0.177500		1.000000		-0.000000		0.010000		0.000035		-0.000000
        0.182500		1.000000		-0.000000		0.010000		0.000035		-0.000000
        0.187500		1.000000		-0.000000		0.010000		0.000035		-0.000000
        0.192500		1.000000		-0.000000		0.010000		0.000035		-0.000000
        0.197500		1.000000		-0.000000		0.010000		0.000035		-0.000000
        0.202500		1.000011		-0.000001		0.010000		0.000035		-0.000011
        0.207500		1.002685		-0.000472		0.010067		0.000035		-0.003979
        0.212500		1.053089		-0.046050		0.034483		0.000114		-0.215078
        0.217500		1.310576		-0.642202		0.907635		0.002412		-0.652204
        0.222500		1.966011		-2.191037		5.742740		0.010173		-1.083475
        0.227500		2.869149		-3.713888		14.781664		0.017942		-1.382865
        0.232500		3.688649		-4.744852		24.478119		0.023111		-1.556694
        0.237500		4.249554		-5.371801		32.376913		0.026533		-1.644788
        0.242500		4.535384		-5.742025		37.912532		0.029112		-1.678482
        0.247500		4.599200		-5.957800		41.447753		0.031385		-1.677307
        0.252500		4.504739		-6.081824		43.560748		0.033677		-1.652940
        0.257500		4.304566		-6.151741		44.754901		0.036209		-1.612421
        0.262500		4.036837		-6.190135		45.392725		0.039160		-1.560140
        0.267500		3.728205		-6.210538		45.711375		0.042700		-1.499005
        0.272500		3.397585		-6.220984		45.856455		0.047004		-1.431133
        0.277500		3.059068		-6.226147		45.912693		0.052269		-1.358262
        0.282500		2.723764		-6.228662		45.926771		0.058722		-1.281984
        0.287500		2.400767		-6.229949		45.922846		0.066616		-1.203874
        0.292500		2.097515		-6.230724		45.912507		0.076230		-1.125541
        0.297500		1.819836		-6.231324		45.900806		0.087840		-1.048630
        0.302500		1.571861		-6.231913		45.889447		0.101672		-0.974783
        0.307500		1.355969		-6.232562		45.878849		0.117832		-0.905568
        0.312500		1.172834		-6.233241		45.869495		0.136204		-0.842376
        0.317500		1.021563		-6.233949		45.861238		0.156345		-0.786337
        0.322500		0.899973		-6.234686		45.853875		0.177439		-0.738206
        0.327500		0.804943		-6.235447		45.847206		0.198358		-0.698280
        0.332500		0.732784		-6.236232		45.841046		0.217862		-0.666375
        0.337500		0.679598		-6.237039		45.835236		0.234882		-0.641861
        0.342500		0.641584		-6.237870		45.829643		0.248768		-0.623772
        0.347500		0.615266		-6.238723		45.824161		0.259378		-0.610964
        0.352500		0.597639		-6.239600		45.818706		0.266997		-0.602269
        0.357500		0.586236		-6.240502		45.813214		0.272158		-0.596618
        0.362500		0.579122		-6.241430		45.807636		0.275467		-0.593111
        0.367500		0.574854		-6.242385		45.801935		0.277478		-0.591049
        0.372500		0.572398		-6.243368		45.796085		0.278633		-0.589915
        0.377500		0.571049		-6.244382		45.790066		0.279254		-0.589354
        0.382500		0.570347		-6.245428		45.783859		0.279560		-0.589131
        0.387500		0.570005		-6.246508		45.777453		0.279689		-0.589097
        0.392500		0.569852		-6.247623		45.770832		0.279723		-0.589166
        0.397500		0.569793		-6.248775		45.763986		0.279711		-0.589288
        0.402500		0.569774		-6.249966		45.756902		0.279677		-0.589436
        0.407500		0.569770		-6.251198		45.749566		0.279634		-0.589597
        0.412500		0.569768		-6.252474		45.741966		0.279588		-0.589766
        0.417500		0.569762		-6.253797		45.734085		0.279543		-0.589938
        0.422500		0.569751		-6.255168		45.725909		0.279498		-0.590115
        0.427500		0.569734		-6.256590		45.717420		0.279455		-0.590295
        0.432500		0.569710		-6.258067		45.708598		0.279413		-0.590479
        0.437500		0.569680		-6.259603		45.699425		0.279371		-0.590667
        0.442500		0.569643		-6.261201		45.689876		0.279331		-0.590861
        0.447500		0.569600		-6.262864		45.679929		0.279291		-0.591060
        0.452500		0.569551		-6.264598		45.669555		0.279252		-0.591265
        0.457500		0.569495		-6.266408		45.658725		0.279213		-0.591477
        0.462500		0.569433		-6.268299		45.647408		0.279174		-0.591696
        0.467500		0.569364		-6.270276		45.635566		0.279136		-0.591924
        0.472500		0.569289		-6.272347		45.623161		0.279097		-0.592161
        0.477500		0.569206		-6.274519		45.610147		0.279058		-0.592407
        0.482500		0.569116		-6.276801		45.596476		0.279018		-0.592665
        0.487500		0.569018		-6.279201		45.582092		0.278978		-0.592934
        0.492500		0.568912		-6.281730		45.566935		0.278937		-0.593216
        0.497500		0.568798		-6.284399		45.550934		0.278895		-0.593513
        0.502500		0.568674		-6.287222		45.534013		0.278853		-0.593825
        0.507500		0.568539		-6.290212		45.516084		0.278809		-0.594154
        0.512500		0.568394		-6.293388		45.497048		0.278763		-0.594503
        0.517500		0.568237		-6.296766		45.476796		0.278716		-0.594872
        0.522500		0.568067		-6.300368		45.455207		0.278667		-0.595265
        0.527500		0.567884		-6.304215		45.432149		0.278616		-0.595683
        0.532500		0.567685		-6.308331		45.407485		0.278562		-0.596129
        0.537500		0.567469		-6.312738		45.381088		0.278506		-0.596606
        0.542500		0.567237		-6.317450		45.352863		0.278447		-0.597115
        0.547500		0.566988		-6.322471		45.322809		0.278385		-0.597656
        0.552500		0.566723		-6.327768		45.291107		0.278320		-0.598226
        0.557500		0.566447		-6.333255		45.258287		0.278253		-0.598816
        0.562500		0.566171		-6.338747		45.225456		0.278187		-0.599407
        0.567500		0.565912		-6.343912		45.194600		0.278125		-0.599963
        0.572500		0.565698		-6.348218		45.168902		0.278072		-0.600427
        0.577500		0.565571		-6.350890		45.152982		0.278036		-0.600719
        0.582500		0.565586		-6.350906		45.152940		0.278028		-0.600728
        0.587500		0.565808		-6.347045		45.176091		0.278062		-0.600327
        0.592500		0.566308		-6.337986		45.230365		0.278150		-0.599375
        0.597500		0.567155		-6.322461		45.323473		0.278307		-0.597739
        0.602500		0.568406		-6.299406		45.462024		0.278543		-0.595307
        0.607500		0.570106		-6.268083		45.650830		0.278866		-0.592003
        0.612500		0.572274		-6.228144		45.892541		0.279280		-0.587795
        0.617500		0.574915		-6.179623		46.187666		0.279785		-0.582689
        0.622500		0.578013		-6.122878		46.534887		0.280377		-0.576728
        0.627500		0.581544		-6.058500		46.931529		0.281050		-0.569980
        0.632500		0.585472		-5.987222		47.374078		0.281797		-0.562528
        0.637500		0.589760		-5.909835		47.858617		0.282610		-0.554458
        0.642500		0.594370		-5.827129		48.381176		0.283480		-0.545859
        0.647500		0.599266		-5.739848		48.937956		0.284399		-0.536813
        0.652500		0.604415		-5.648672		49.525464		0.285361		-0.527395
        0.657500		0.609787		-5.554204		50.140578		0.286360		-0.517669
        0.662500		0.615357		-5.456969		50.780558		0.287390		-0.507694
        0.667500		0.621102		-5.357421		51.443028		0.288447		-0.497519
        0.672500		0.627002		-5.255947		52.125949		0.289526		-0.487185
        0.677500		0.633040		-5.152877		52.827574		0.290624		-0.476729
        0.682500		0.639204		-5.048493		53.546408		0.291738		-0.466179
        0.687500		0.645480		-4.943032		54.281176		0.292866		-0.455561
        0.692500		0.651858		-4.836699		55.030779		0.294005		-0.444896
        0.697500		0.658328		-4.729668		55.794272		0.295154		-0.434203
        0.702500		0.664884		-4.622088		56.570830		0.296311		-0.423498
        0.707500		0.671518		-4.514090		57.359732		0.297476		-0.412792
        0.712500		0.678224		-4.405787		58.160336		0.298645		-0.402099
        0.717500		0.684997		-4.297279		58.972067		0.299819		-0.391427
        0.722500		0.691831		-4.188654		59.794401		0.300997		-0.380785
        0.727500		0.698722		-4.079992		60.626854		0.302178		-0.370182
        0.732500		0.705666		-3.971365		61.468969		0.303360		-0.359623
        0.737500		0.712659		-3.862839		62.320314		0.304544		-0.349115
        0.742500		0.719697		-3.754476		63.180465		0.305728		-0.338664
        0.747500		0.726775		-3.646334		64.049008		0.306912		-0.328274
        0.752500		0.733891		-3.538468		64.925528		0.308096		-0.317950
        0.757500		0.741041		-3.430932		65.809602		0.309278		-0.307698
        0.762500		0.748221		-3.323777		66.700801		0.310458		-0.297521
        0.767500		0.755427		-3.217056		67.598678		0.311636		-0.287423
        0.772500		0.762656		-3.110820		68.502765		0.312811		-0.277409
        0.777500		0.769903		-3.005120		69.412570		0.313982		-0.267483
        0.782500		0.777164		-2.900009		70.327575		0.315148		-0.257649
        0.787500		0.784435		-2.795541		71.247225		0.316310		-0.247911
        0.792500		0.791711		-2.691771		72.170931		0.317466		-0.238274
        0.797500		0.798987		-2.588757		73.098058		0.318616		-0.228741
        0.802500		0.806259		-2.486558		74.027930		0.319759		-0.219318
        0.807500		0.813520		-2.385238		74.959816		0.320894		-0.210009
        0.812500		0.820765		-2.284860		75.892934		0.322021		-0.200819
        0.817500		0.827988		-2.185496		76.826440		0.323139		-0.191753
        0.822500		0.835181		-2.087216		77.759428		0.324246		-0.182817
        0.827500		0.842339		-1.990098		78.690925		0.325342		-0.174017
        0.832500		0.849452		-1.894221		79.619884		0.326426		-0.165358
        0.837500		0.856515		-1.799671		80.545186		0.327497		-0.156847
        0.842500		0.863516		-1.706537		81.465631		0.328553		-0.148491
        0.847500		0.870449		-1.614914		82.379939		0.329595		-0.140296
        0.852500		0.877303		-1.524899		83.286748		0.330619		-0.132271
        0.857500		0.884069		-1.436596		84.184609		0.331626		-0.124422
        0.862500		0.890734		-1.350114		85.071994		0.332614		-0.116758
        0.867500		0.897290		-1.265564		85.947290		0.333581		-0.109287
        0.872500		0.903723		-1.183062		86.808809		0.334526		-0.102019
        0.877500		0.910022		-1.102728		87.654791		0.335448		-0.094960
        0.882500		0.916175		-1.024683		88.483413		0.336345		-0.088122
        0.887500		0.922169		-0.949052		89.292803		0.337216		-0.081512
        0.892500		0.927991		-0.875959		90.081052		0.338058		-0.075141
        0.897500		0.933628		-0.805526		90.846236		0.338872		-0.069016
        0.902500		0.939068		-0.737874		91.586436		0.339654		-0.063147
        0.907500		0.944298		-0.673119		92.299764		0.340403		-0.057542
        0.912500		0.949306		-0.611370		92.984396		0.341119		-0.052208
        0.917500		0.954082		-0.552728		93.638602		0.341799		-0.047153
        0.922500		0.958614		-0.497279		94.260787		0.342444		-0.042383
        0.927500		0.962895		-0.445099		94.849521		0.343051		-0.037902
        0.932500		0.966916		-0.396243		95.403588		0.343620		-0.033714
        0.937500		0.970672		-0.350749		95.922015		0.344150		-0.029820
        0.942500		0.974160		-0.308630		96.404111		0.344641		-0.026221
        0.947500		0.977377		-0.269878		96.849499		0.345094		-0.022913
        0.952500		0.980324		-0.234456		97.258135		0.345508		-0.019894
        0.957500		0.983005		-0.202304		97.630328		0.345884		-0.017156
        0.962500		0.985426		-0.173332		97.966743		0.346224		-0.014692
        0.967500		0.987594		-0.147425		98.268393		0.346527		-0.012491
        0.972500		0.989521		-0.124445		98.536623		0.346797		-0.010540
        0.977500		0.991218		-0.104232		98.773080		0.347034		-0.008825
        0.982500		0.992699		-0.086605		98.979669		0.347241		-0.007330
        0.987500		0.993980		-0.071370		99.158508		0.347419		-0.006039
        0.992500		0.995079		-0.058325		99.311868		0.347573		-0.004934
        0.997500		0.996011		-0.047258		99.442115		0.347703		-0.003997
