 VARIABLES = "X", "RHO_AN", "U_AN", "P_AN"
 ZONE I=         200
         0.0025000         5.9992400        19.5975000       460.8940000
         0.0075000         5.9992400        19.5975000       460.8940000
         0.0125000         5.9992400        19.5975000       460.8940000
         0.0175000         5.9992400        19.5975000       460.8940000
         0.0225000         5.9992400        19.5975000       460.8940000
         0.0275000         5.9992400        19.5975000       460.8940000
         0.0325000         5.9992400        19.5975000       460.8940000
         0.0375000         5.9992400        19.5975000       460.8940000
         0.0425000         5.9992400        19.5975000       460.8940000
         0.0475000         5.9992400        19.5975000       460.8940000
         0.0525000         5.9992400        19.5975000       460.8940000
         0.0575000         5.9992400        19.5975000       460.8940000
         0.0625000         5.9992400        19.5975000       460.8940000
         0.0675000         5.9992400        19.5975000       460.8940000
         0.0725000         5.9992400        19.5975000       460.8940000
         0.0775000         5.9992400        19.5975000       460.8940000
         0.0825000         5.9992400        19.5975000       460.8940000
         0.0875000         5.9992400        19.5975000       460.8940000
         0.0925000         5.9992400        19.5975000       460.8940000
         0.0975000         5.9992400        19.5975000       460.8940000
         0.1025000         5.9992400        19.5975000       460.8940000
         0.1075000         5.9992400        19.5975000       460.8940000
         0.1125000         5.9992400        19.5975000       460.8940000
         0.1175000         5.9992400        19.5975000       460.8940000
         0.1225000         5.9992400        19.5975000       460.8940000
         0.1275000         5.9992400        19.5975000       460.8940000
         0.1325000         5.9992400        19.5975000       460.8940000
         0.1375000         5.9992400        19.5975000       460.8940000
         0.1425000         5.9992400        19.5975000       460.8940000
         0.1475000         5.9992400        19.5975000       460.8940000
         0.1525000         5.9992400        19.5975000       460.8940000
         0.1575000         5.9992400        19.5975000       460.8940000
         0.1625000         5.9992400        19.5975000       460.8940000
         0.1675000         5.9992400        19.5975000       460.8940000
         0.1725000         5.9992400        19.5975000       460.8940000
         0.1775000         5.9992400        19.5975000       460.8940000
         0.1825000         5.9992400        19.5975000       460.8940000
         0.1875000         5.9992400        19.5975000       460.8940000
         0.1925000         5.9992400        19.5975000       460.8940000
         0.1975000         5.9992400        19.5975000       460.8940000
         0.2025000         5.9992400        19.5975000       460.8940000
         0.2075000         5.9992400        19.5975000       460.8940000
         0.2125000         5.9992400        19.5975000       460.8940000
         0.2175000         5.9992400        19.5975000       460.8940000
         0.2225000         5.9992400        19.5975000       460.8940000
         0.2275000         5.9992400        19.5975000       460.8940000
         0.2325000         5.9992400        19.5975000       460.8940000
         0.2375000         5.9992400        19.5975000       460.8940000
         0.2425000         5.9992400        19.5975000       460.8940000
         0.2475000         5.9992400        19.5975000       460.8940000
         0.2525000         5.9992400        19.5975000       460.8940000
         0.2575000         5.9992400        19.5975000       460.8940000
         0.2625000         5.9992400        19.5975000       460.8940000
         0.2675000         5.9992400        19.5975000       460.8940000
         0.2725000         5.9992400        19.5975000       460.8940000
         0.2775000         5.9992400        19.5975000       460.8940000
         0.2825000         5.9992400        19.5975000       460.8940000
         0.2875000         5.9992400        19.5975000       460.8940000
         0.2925000         5.9992400        19.5975000       460.8940000
         0.2975000         5.9992400        19.5975000       460.8940000
         0.3025000         5.9992400        19.5975000       460.8940000
         0.3075000         5.9992400        19.5975000       460.8940000
         0.3125000         5.9992400        19.5975000       460.8940000
         0.3175000         5.9992400        19.5975000       460.8940000
         0.3225000         5.9992400        19.5975000       460.8940000
         0.3275000         5.9992400        19.5975000       460.8940000
         0.3325000         5.9992400        19.5975000       460.8940000
         0.3375000         5.9992400        19.5975000       460.8940000
         0.3425000         5.9992400        19.5975000       460.8940000
         0.3475000         5.9992400        19.5975000       460.8940000
         0.3525000         5.9992400        19.5975000       460.8940000
         0.3575000         5.9992400        19.5975000       460.8940000
         0.3625000         5.9992400        19.5975000       460.8940000
         0.3675000         5.9992400        19.5975000       460.8940000
         0.3725000         5.9992400        19.5975000       460.8940000
         0.3775000         5.9992400        19.5975000       460.8940000
         0.3825000         5.9992400        19.5975000       460.8940000
         0.3875000         5.9992400        19.5975000       460.8940000
         0.3925000         5.9992400        19.5975000       460.8940000
         0.3975000         5.9992400        19.5975000       460.8940000
         0.4025000         5.9992400        19.5975000       460.8940000
         0.4075000         5.9992400        19.5975000       460.8940000
         0.4125000         5.9992400        19.5975000       460.8940000
         0.4175000         5.9992400        19.5975000       460.8940000
         0.4225000         5.9992400        19.5975000       460.8940000
         0.4275000         5.9992400        19.5975000       460.8940000
         0.4325000         5.9992400        19.5975000       460.8940000
         0.4375000         5.9992400        19.5975000       460.8940000
         0.4425000         5.9992400        19.5975000       460.8940000
         0.4475000         5.9992400        19.5975000       460.8940000
         0.4525000         5.9992400        19.5975000       460.8940000
         0.4575000         5.9992400        19.5975000       460.8940000
         0.4625000         5.9992400        19.5975000       460.8940000
         0.4675000         5.9992400        19.5975000       460.8940000
         0.4725000         5.9992400        19.5975000       460.8940000
         0.4775000         5.9992400        19.5975000       460.8940000
         0.4825000         5.9992400        19.5975000       460.8940000
         0.4875000         5.9992400        19.5975000       460.8940000
         0.4925000         5.9992400        19.5975000       460.8940000
         0.4975000         5.9992400        19.5975000       460.8940000
         0.5025000         5.9992400        19.5975000       460.8940000
         0.5075000         5.9992400        19.5975000       460.8940000
         0.5125000         5.9992400        19.5975000       460.8940000
         0.5175000         5.9992400        19.5975000       460.8940000
         0.5225000         5.9992400        19.5975000       460.8940000
         0.5275000         5.9992400        19.5975000       460.8940000
         0.5325000        14.2823500         8.6897744      1691.6469402
         0.5375000        14.2823500         8.6897744      1691.6469402
         0.5425000        14.2823500         8.6897744      1691.6469402
         0.5475000        14.2823500         8.6897744      1691.6469402
         0.5525000        14.2823500         8.6897744      1691.6469402
         0.5575000        14.2823500         8.6897744      1691.6469402
         0.5625000        14.2823500         8.6897744      1691.6469402
         0.5675000        14.2823500         8.6897744      1691.6469402
         0.5725000        14.2823500         8.6897744      1691.6469402
         0.5775000        14.2823500         8.6897744      1691.6469402
         0.5825000        14.2823500         8.6897744      1691.6469402
         0.5875000        14.2823500         8.6897744      1691.6469402
         0.5925000        14.2823500         8.6897744      1691.6469402
         0.5975000        14.2823500         8.6897744      1691.6469402
         0.6025000        14.2823500         8.6897744      1691.6469402
         0.6075000        14.2823500         8.6897744      1691.6469402
         0.6125000        14.2823500         8.6897744      1691.6469402
         0.6175000        14.2823500         8.6897744      1691.6469402
         0.6225000        14.2823500         8.6897744      1691.6469402
         0.6275000        14.2823500         8.6897744      1691.6469402
         0.6325000        14.2823500         8.6897744      1691.6469402
         0.6375000        14.2823500         8.6897744      1691.6469402
         0.6425000        14.2823500         8.6897744      1691.6469402
         0.6475000        14.2823500         8.6897744      1691.6469402
         0.6525000        14.2823500         8.6897744      1691.6469402
         0.6575000        14.2823500         8.6897744      1691.6469402
         0.6625000        14.2823500         8.6897744      1691.6469402
         0.6675000        14.2823500         8.6897744      1691.6469402
         0.6725000        14.2823500         8.6897744      1691.6469402
         0.6775000        14.2823500         8.6897744      1691.6469402
         0.6825000        14.2823500         8.6897744      1691.6469402
         0.6875000        14.2823500         8.6897744      1691.6469402
         0.6925000        14.2823500         8.6897744      1691.6469402
         0.6975000        14.2823500         8.6897744      1691.6469402
         0.7025000        14.2823500         8.6897744      1691.6469402
         0.7075000        14.2823500         8.6897744      1691.6469402
         0.7125000        14.2823500         8.6897744      1691.6469402
         0.7175000        14.2823500         8.6897744      1691.6469402
         0.7225000        14.2823500         8.6897744      1691.6469402
         0.7275000        14.2823500         8.6897744      1691.6469402
         0.7325000        14.2823500         8.6897744      1691.6469402
         0.7375000        14.2823500         8.6897744      1691.6469402
         0.7425000        14.2823500         8.6897744      1691.6469402
         0.7475000        14.2823500         8.6897744      1691.6469402
         0.7525000        14.2823500         8.6897744      1691.6469402
         0.7575000        14.2823500         8.6897744      1691.6469402
         0.7625000        14.2823500         8.6897744      1691.6469402
         0.7675000        14.2823500         8.6897744      1691.6469402
         0.7725000        14.2823500         8.6897744      1691.6469402
         0.7775000        14.2823500         8.6897744      1691.6469402
         0.7825000        14.2823500         8.6897744      1691.6469402
         0.7875000        14.2823500         8.6897744      1691.6469402
         0.7925000        14.2823500         8.6897744      1691.6469402
         0.7975000        14.2823500         8.6897744      1691.6469402
         0.8025000        14.2823500         8.6897744      1691.6469402
         0.8075000        31.0426023         8.6897744      1691.6469402
         0.8125000        31.0426023         8.6897744      1691.6469402
         0.8175000        31.0426023         8.6897744      1691.6469402
         0.8225000        31.0426023         8.6897744      1691.6469402
         0.8275000        31.0426023         8.6897744      1691.6469402
         0.8325000        31.0426023         8.6897744      1691.6469402
         0.8375000        31.0426023         8.6897744      1691.6469402
         0.8425000        31.0426023         8.6897744      1691.6469402
         0.8475000        31.0426023         8.6897744      1691.6469402
         0.8525000        31.0426023         8.6897744      1691.6469402
         0.8575000        31.0426023         8.6897744      1691.6469402
         0.8625000        31.0426023         8.6897744      1691.6469402
         0.8675000        31.0426023         8.6897744      1691.6469402
         0.8725000        31.0426023         8.6897744      1691.6469402
         0.8775000        31.0426023         8.6897744      1691.6469402
         0.8825000        31.0426023         8.6897744      1691.6469402
         0.8875000        31.0426023         8.6897744      1691.6469402
         0.8925000        31.0426023         8.6897744      1691.6469402
         0.8975000        31.0426023         8.6897744      1691.6469402
         0.9025000        31.0426023         8.6897744      1691.6469402
         0.9075000        31.0426023         8.6897744      1691.6469402
         0.9125000        31.0426023         8.6897744      1691.6469402
         0.9175000        31.0426023         8.6897744      1691.6469402
         0.9225000        31.0426023         8.6897744      1691.6469402
         0.9275000        31.0426023         8.6897744      1691.6469402
         0.9325000         5.9924200        -6.1963300        46.0950000
         0.9375000         5.9924200        -6.1963300        46.0950000
         0.9425000         5.9924200        -6.1963300        46.0950000
         0.9475000         5.9924200        -6.1963300        46.0950000
         0.9525000         5.9924200        -6.1963300        46.0950000
         0.9575000         5.9924200        -6.1963300        46.0950000
         0.9625000         5.9924200        -6.1963300        46.0950000
         0.9675000         5.9924200        -6.1963300        46.0950000
         0.9725000         5.9924200        -6.1963300        46.0950000
         0.9775000         5.9924200        -6.1963300        46.0950000
         0.9825000         5.9924200        -6.1963300        46.0950000
         0.9875000         5.9924200        -6.1963300        46.0950000
         0.9925000         5.9924200        -6.1963300        46.0950000
         0.9975000         5.9924200        -6.1963300        46.0950000
