Variables = X,Ro,U,P,T,M
Zone i = 200
        0.002500		5.999240		19.597500		460.894000		0.267551		1.889663
        0.007500		5.999240		19.597500		460.894000		0.267551		1.889663
        0.012500		5.999240		19.597500		460.894000		0.267551		1.889663
        0.017500		5.999240		19.597500		460.894000		0.267551		1.889663
        0.022500		5.999240		19.597500		460.894000		0.267551		1.889663
        0.027500		5.999240		19.597500		460.894000		0.267551		1.889663
        0.032500		5.999240		19.597500		460.894000		0.267551		1.889663
        0.037500		5.999240		19.597500		460.894000		0.267551		1.889663
        0.042500		5.999240		19.597500		460.894000		0.267551		1.889663
        0.047500		5.999240		19.597500		460.894000		0.267551		1.889663
        0.052500		5.999240		19.597500		460.894000		0.267551		1.889663
        0.057500		5.999240		19.597500		460.894000		0.267551		1.889663
        0.062500		5.999240		19.597500		460.894000		0.267551		1.889663
        0.067500		5.999240		19.597500		460.894000		0.267551		1.889663
        0.072500		5.999240		19.597500		460.894000		0.267551		1.889663
        0.077500		5.999240		19.597500		460.894000		0.267551		1.889663
        0.082500		5.999240		19.597500		460.894000		0.267551		1.889663
        0.087500		5.999240		19.597500		460.894000		0.267551		1.889663
        0.092500		5.999240		19.597500		460.894000		0.267551		1.889663
        0.097500		5.999240		19.597500		460.894000		0.267551		1.889663
        0.102500		5.999240		19.597500		460.894000		0.267551		1.889663
        0.107500		5.999240		19.597500		460.894000		0.267551		1.889663
        0.112500		5.999240		19.597500		460.894000		0.267551		1.889663
        0.117500		5.999240		19.597500		460.894000		0.267551		1.889663
        0.122500		5.999240		19.597500		460.894000		0.267551		1.889663
        0.127500		5.999240		19.597500		460.894000		0.267551		1.889663
        0.132500		5.999240		19.597500		460.894000		0.267551		1.889663
        0.137500		5.999240		19.597500		460.894000		0.267551		1.889663
        0.142500		5.999240		19.597500		460.894000		0.267551		1.889663
        0.147500		5.999240		19.597500		460.894000		0.267551		1.889663
        0.152500		5.999240		19.597500		460.894000		0.267551		1.889663
        0.157500		5.999240		19.597500		460.894000		0.267551		1.889663
        0.162500		5.999240		19.597500		460.894000		0.267551		1.889663
        0.167500		5.999240		19.597500		460.894000		0.267551		1.889663
        0.172500		5.999240		19.597500		460.894000		0.267551		1.889663
        0.177500		5.999240		19.597500		460.894000		0.267551		1.889663
        0.182500		5.999240		19.597500		460.894000		0.267551		1.889663
        0.187500		5.999240		19.597500		460.894000		0.267551		1.889663
        0.192500		5.999240		19.597500		460.894000		0.267551		1.889663
        0.197500		5.999240		19.597500		460.894000		0.267551		1.889663
        0.202500		5.999240		19.597500		460.894000		0.267551		1.889663
        0.207500		5.999240		19.597500		460.894000		0.267551		1.889663
        0.212500		5.999240		19.597500		460.894000		0.267551		1.889663
        0.217500		5.999240		19.597500		460.894000		0.267551		1.889663
        0.222500		5.999240		19.597500		460.894000		0.267551		1.889663
        0.227500		5.999240		19.597500		460.894000		0.267551		1.889663
        0.232500		5.999240		19.597500		460.894000		0.267551		1.889663
        0.237500		5.999240		19.597500		460.894000		0.267551		1.889663
        0.242500		5.999240		19.597500		460.894000		0.267551		1.889663
        0.247500		5.999240		19.597500		460.894000		0.267551		1.889663
        0.252500		5.999240		19.597500		460.894000		0.267551		1.889663
        0.257500		5.999240		19.597500		460.894000		0.267551		1.889663
        0.262500		5.999240		19.597500		460.894000		0.267551		1.889663
        0.267500		5.999240		19.597500		460.894000		0.267551		1.889663
        0.272500		5.999240		19.597500		460.894000		0.267551		1.889663
        0.277500		5.999240		19.597500		460.894000		0.267551		1.889663
        0.282500		5.999240		19.597500		460.894000		0.267551		1.889663
        0.287500		5.999240		19.597500		460.894000		0.267551		1.889663
        0.292500		5.999240		19.597500		460.894000		0.267551		1.889663
        0.297500		5.999240		19.597500		460.894000		0.267551		1.889663
        0.302500		5.999240		19.597500		460.894000		0.267551		1.889663
        0.307500		5.999240		19.597500		460.894000		0.267551		1.889663
        0.312500		5.999240		19.597500		460.894000		0.267551		1.889663
        0.317500		5.999240		19.597500		460.894000		0.267551		1.889663
        0.322500		5.999240		19.597500		460.894000		0.267551		1.889663
        0.327500		5.999240		19.597500		460.894000		0.267551		1.889663
        0.332500		5.999240		19.597500		460.894000		0.267551		1.889663
        0.337500		5.999240		19.597500		460.894000		0.267551		1.889663
        0.342500		5.999240		19.597500		460.894000		0.267551		1.889663
        0.347500		5.999240		19.597500		460.894000		0.267551		1.889663
        0.352500		5.999240		19.597500		460.894000		0.267551		1.889663
        0.357500		5.999240		19.597500		460.894000		0.267551		1.889663
        0.362500		5.999240		19.597500		460.894000		0.267551		1.889663
        0.367500		5.999240		19.597500		460.894000		0.267551		1.889663
        0.372500		5.999240		19.597500		460.894000		0.267551		1.889663
        0.377500		5.999240		19.597500		460.894000		0.267551		1.889663
        0.382500		5.999240		19.597500		460.894000		0.267551		1.889663
        0.387500		5.999240		19.597500		460.894000		0.267551		1.889663
        0.392500		5.999240		19.597500		460.894000		0.267551		1.889663
        0.397500		5.999240		19.597500		460.894000		0.267551		1.889663
        0.402500		5.999240		19.597500		460.894000		0.267551		1.889663
        0.407500		5.999240		19.597500		460.894000		0.267551		1.889663
        0.412500		5.999240		19.597500		460.894000		0.267551		1.889663
        0.417500		5.999240		19.597500		460.894000		0.267551		1.889663
        0.422500		5.999240		19.597500		460.894000		0.267551		1.889663
        0.427500		5.999240		19.597500		460.894000		0.267551		1.889663
        0.432500		5.999240		19.597500		460.894000		0.267551		1.889663
        0.437500		5.999240		19.597500		460.894000		0.267551		1.889663
        0.442500		5.999240		19.597500		460.894000		0.267551		1.889663
        0.447500		5.999240		19.597500		460.894000		0.267551		1.889663
        0.452500		5.999240		19.597500		460.894000		0.267551		1.889663
        0.457500		5.999240		19.597500		460.894000		0.267551		1.889663
        0.462500		5.999240		19.597500		460.894000		0.267551		1.889663
        0.467500		5.999240		19.597500		460.894000		0.267551		1.889663
        0.472500		5.999240		19.597500		460.894000		0.267551		1.889663
        0.477500		5.999240		19.597500		460.894000		0.267551		1.889663
        0.482500		5.999240		19.597500		460.894000		0.267551		1.889663
        0.487500		5.999240		19.597500		460.894000		0.267551		1.889663
        0.492500		5.999240		19.597500		460.894000		0.267551		1.889663
        0.497500		5.999240		19.597500		460.894000		0.267551		1.889663
        0.502500		5.999240		19.597500		460.894000		0.267551		1.889663
        0.507500		5.999240		19.597500		460.894000		0.267551		1.889663
        0.512500		5.999240		19.597500		460.894000		0.267551		1.889663
        0.517500		5.999240		19.597500		460.894000		0.267551		1.889663
        0.522500		5.999240		19.597499		460.894054		0.267551		1.889662
        0.527500		6.046086		19.515920		465.988267		0.268412		1.878775
        0.532500		12.733373		10.082692		1448.029977		0.396037		0.799090
        0.537500		14.252919		8.697474		1686.918898		0.412185		0.675669
        0.542500		14.301480		8.700969		1687.910859		0.411027		0.676892
        0.547500		14.325289		8.705386		1689.054520		0.410622		0.677570
        0.552500		14.325765		8.710119		1690.237647		0.410896		0.677712
        0.557500		14.312910		8.714420		1691.322850		0.411529		0.677525
        0.562500		14.296928		8.717598		1692.184308		0.412199		0.677221
        0.567500		14.284349		8.719203		1692.740225		0.412697		0.676936
        0.572500		14.277761		8.719108		1692.968569		0.412944		0.676727
        0.577500		14.276920		8.717489		1692.902518		0.412952		0.676595
        0.582500		14.279983		8.714720		1692.611254		0.412792		0.676511
        0.587500		14.284535		8.711244		1692.176340		0.412555		0.676436
        0.592500		14.288395		8.707463		1691.672621		0.412320		0.676334
        0.597500		14.290148		8.703690		1691.157854		0.412144		0.676185
        0.602500		14.289353		8.700132		1690.670636		0.412049		0.675987
        0.607500		14.286442		8.696909		1690.233595		0.412026		0.675755
        0.612500		14.282379		8.694082		1689.858563		0.412052		0.675515
        0.617500		14.278264		8.691682		1689.551417		0.412096		0.675292
        0.622500		14.274994		8.689725		1689.315537		0.412132		0.675110
        0.627500		14.273082		8.688222		1689.153689		0.412148		0.674980
        0.632500		14.272632		8.687186		1689.068603		0.412140		0.674906
        0.637500		14.273443		8.686625		1689.062624		0.412116		0.674883
        0.642500		14.275160		8.686543		1689.136824		0.412084		0.674902
        0.647500		14.277418		8.686927		1689.289884		0.412056		0.674955
        0.652500		14.279945		8.687750		1689.517056		0.412039		0.675033
        0.657500		14.282594		8.688958		1689.809430		0.412034		0.675131
        0.662500		14.285337		8.690476		1690.153695		0.412038		0.675245
        0.667500		14.288230		8.692207		1690.532500		0.412047		0.675373
        0.672500		14.291368		8.694036		1690.925414		0.412053		0.675510
        0.677500		14.294879		8.695842		1691.310392		0.412045		0.675657
        0.682500		14.298931		8.697503		1691.665560		0.412015		0.675811
        0.687500		14.303790		8.698909		1691.971095		0.411949		0.675974
        0.692500		14.309896		8.699972		1692.210922		0.411832		0.676153
        0.697500		14.317969		8.700629		1692.374014		0.411639		0.676362
        0.702500		14.329126		8.700852		1692.455130		0.411339		0.676627
        0.707500		14.345003		8.700642		1692.454954		0.410883		0.676985
        0.712500		14.367876		8.700032		1692.379676		0.410211		0.677492
        0.717500		14.400768		8.699079		1692.240095		0.409240		0.678221
        0.722500		14.447539		8.697861		1692.050405		0.407870		0.679264
        0.727500		14.512928		8.696467		1691.826804		0.405978		0.680735
        0.732500		14.602554		8.694989		1691.586192		0.403429		0.682767
        0.737500		14.722832		8.693522		1691.345161		0.400076		0.685506
        0.742500		14.880816		8.692149		1691.119291		0.395776		0.689111
        0.747500		15.083926		8.690944		1690.922561		0.390401		0.693742
        0.752500		15.339588		8.689966		1690.766672		0.383859		0.699550
        0.757500		15.654780		8.689259		1690.660395		0.376107		0.706666
        0.762500		16.035516		8.688852		1690.609353		0.367166		0.715185
        0.767500		16.486315		8.688753		1690.616372		0.357128		0.725158
        0.772500		17.009692		8.688945		1690.681745		0.346152		0.736581
        0.777500		17.605718		8.689391		1690.802425		0.334458		0.749386
        0.782500		18.271701		8.690041		1690.970328		0.322299		0.763448
        0.787500		19.002035		8.690839		1691.172030		0.309949		0.778581
        0.792500		19.788285		8.691715		1691.391712		0.297672		0.794554
        0.797500		20.619471		8.692578		1691.614606		0.285710		0.811097
        0.802500		21.482534		8.693337		1691.826898		0.274266		0.827918
        0.807500		22.362899		8.693933		1692.011016		0.263498		0.844724
        0.812500		23.245230		8.694343		1692.148679		0.253517		0.861232
        0.817500		24.114272		8.694558		1692.228385		0.244392		0.877185
        0.822500		24.955747		8.694542		1692.256172		0.236155		0.892349
        0.827500		25.756899		8.694302		1692.240732		0.228808		0.906539
        0.832500		26.506952		8.693904		1692.185598		0.222326		0.919616
        0.837500		27.197551		8.693441		1692.094857		0.216669		0.931494
        0.842500		27.823083		8.692974		1691.983302		0.211784		0.942126
        0.847500		28.380775		8.692496		1691.882046		0.207610		0.951497
        0.852500		28.870102		8.692067		1691.801215		0.204081		0.959640
        0.857500		29.292694		8.691726		1691.747642		0.201131		0.966616
        0.862500		29.651732		8.691554		1691.706911		0.198690		0.972514
        0.867500		29.952045		8.691493		1691.685499		0.196696		0.977426
        0.872500		30.199346		8.691435		1691.684368		0.195085		0.981446
        0.877500		30.399387		8.691281		1691.666383		0.193799		0.984679
        0.882500		30.557651		8.690808		1691.562266		0.192784		0.987216
        0.887500		30.678419		8.689580		1691.222686		0.191986		0.989124
        0.892500		30.764070		8.686499		1690.382906		0.191357		0.990399
        0.897500		30.812177		8.679317		1688.452950		0.190840		0.990919
        0.902500		30.810528		8.663275		1684.145027		0.190363		0.990325
        0.907500		30.726868		8.628093		1674.693386		0.189810		0.987739
        0.912500		30.487370		8.551429		1654.217058		0.188962		0.981157
        0.917500		29.933511		8.384541		1610.457034		0.187367		0.966094
        0.922500		28.742035		8.021127		1518.804915		0.184029		0.932565
        0.927500		26.317158		7.227747		1334.712822		0.176624		0.857757
        0.932500		21.804872		5.494447		997.774707		0.159361		0.686468
        0.937500		14.876771		1.820781		503.657987		0.117904		0.264472
        0.942500		7.714909		-4.170014		103.520808		0.046730		-0.962111
        0.947500		5.992420		-6.196330		46.095000		0.026789		-1.888186
        0.952500		5.992420		-6.196330		46.095000		0.026789		-1.888186
        0.957500		5.992420		-6.196330		46.095000		0.026789		-1.888186
        0.962500		5.992420		-6.196330		46.095000		0.026789		-1.888186
        0.967500		5.992420		-6.196330		46.095000		0.026789		-1.888186
        0.972500		5.992420		-6.196330		46.095000		0.026789		-1.888186
        0.977500		5.992420		-6.196330		46.095000		0.026789		-1.888186
        0.982500		5.992420		-6.196330		46.095000		0.026789		-1.888186
        0.987500		5.992420		-6.196330		46.095000		0.026789		-1.888186
        0.992500		5.992420		-6.196330		46.095000		0.026789		-1.888186
        0.997500		5.992420		-6.196330		46.095000		0.026789		-1.888186
