Variables = X,Ro,U,P,T,M
Zone i = 200
        0.002500		5.999240		19.597500		460.894000		0.267551		1.889663
        0.007500		5.999240		19.597500		460.894000		0.267551		1.889663
        0.012500		5.999240		19.597500		460.894000		0.267551		1.889663
        0.017500		5.999240		19.597500		460.894000		0.267551		1.889663
        0.022500		5.999240		19.597500		460.894000		0.267551		1.889663
        0.027500		5.999240		19.597500		460.894000		0.267551		1.889663
        0.032500		5.999240		19.597500		460.894000		0.267551		1.889663
        0.037500		5.999240		19.597500		460.894000		0.267551		1.889663
        0.042500		5.999240		19.597500		460.894000		0.267551		1.889663
        0.047500		5.999240		19.597500		460.894000		0.267551		1.889663
        0.052500		5.999240		19.597500		460.894000		0.267551		1.889663
        0.057500		5.999240		19.597500		460.894000		0.267551		1.889663
        0.062500		5.999240		19.597500		460.894000		0.267551		1.889663
        0.067500		5.999240		19.597500		460.894000		0.267551		1.889663
        0.072500		5.999240		19.597500		460.894000		0.267551		1.889663
        0.077500		5.999240		19.597500		460.894000		0.267551		1.889663
        0.082500		5.999240		19.597500		460.894000		0.267551		1.889663
        0.087500		5.999240		19.597500		460.894000		0.267551		1.889663
        0.092500		5.999240		19.597500		460.894000		0.267551		1.889663
        0.097500		5.999240		19.597500		460.894000		0.267551		1.889663
        0.102500		5.999240		19.597500		460.894000		0.267551		1.889663
        0.107500		5.999240		19.597500		460.894000		0.267551		1.889663
        0.112500		5.999240		19.597500		460.894000		0.267551		1.889663
        0.117500		5.999240		19.597500		460.894000		0.267551		1.889663
        0.122500		5.999240		19.597500		460.894000		0.267551		1.889663
        0.127500		5.999240		19.597500		460.894000		0.267551		1.889663
        0.132500		5.999240		19.597500		460.894000		0.267551		1.889663
        0.137500		5.999240		19.597500		460.894000		0.267551		1.889663
        0.142500		5.999240		19.597500		460.894000		0.267551		1.889663
        0.147500		5.999240		19.597500		460.894000		0.267551		1.889663
        0.152500		5.999240		19.597500		460.894000		0.267551		1.889663
        0.157500		5.999240		19.597500		460.894000		0.267551		1.889663
        0.162500		5.999240		19.597500		460.894000		0.267551		1.889663
        0.167500		5.999240		19.597500		460.894000		0.267551		1.889663
        0.172500		5.999240		19.597500		460.894000		0.267551		1.889663
        0.177500		5.999240		19.597500		460.894000		0.267551		1.889663
        0.182500		5.999240		19.597500		460.894000		0.267551		1.889663
        0.187500		5.999240		19.597500		460.894000		0.267551		1.889663
        0.192500		5.999240		19.597500		460.894000		0.267551		1.889663
        0.197500		5.999240		19.597500		460.894000		0.267551		1.889663
        0.202500		5.999240		19.597500		460.894000		0.267551		1.889663
        0.207500		5.999240		19.597500		460.894000		0.267551		1.889663
        0.212500		5.999240		19.597500		460.894000		0.267551		1.889663
        0.217500		5.999240		19.597500		460.894000		0.267551		1.889663
        0.222500		5.999240		19.597500		460.894000		0.267551		1.889663
        0.227500		5.999240		19.597500		460.894000		0.267551		1.889663
        0.232500		5.999240		19.597500		460.894000		0.267551		1.889663
        0.237500		5.999240		19.597500		460.894000		0.267551		1.889663
        0.242500		5.999240		19.597500		460.894000		0.267551		1.889663
        0.247500		5.999240		19.597500		460.894000		0.267551		1.889663
        0.252500		5.999240		19.597500		460.894000		0.267551		1.889663
        0.257500		5.999240		19.597500		460.894000		0.267551		1.889663
        0.262500		5.999240		19.597500		460.894000		0.267551		1.889663
        0.267500		5.999240		19.597500		460.894000		0.267551		1.889663
        0.272500		5.999240		19.597500		460.894000		0.267551		1.889663
        0.277500		5.999240		19.597500		460.894000		0.267551		1.889663
        0.282500		5.999240		19.597500		460.894000		0.267551		1.889663
        0.287500		5.999240		19.597500		460.894000		0.267551		1.889663
        0.292500		5.999240		19.597500		460.894000		0.267551		1.889663
        0.297500		5.999240		19.597500		460.894000		0.267551		1.889663
        0.302500		5.999240		19.597500		460.894000		0.267551		1.889663
        0.307500		5.999240		19.597500		460.894000		0.267551		1.889663
        0.312500		5.999240		19.597500		460.894000		0.267551		1.889663
        0.317500		5.999240		19.597500		460.894000		0.267551		1.889663
        0.322500		5.999240		19.597500		460.894000		0.267551		1.889663
        0.327500		5.999240		19.597500		460.894000		0.267551		1.889663
        0.332500		5.999240		19.597500		460.894000		0.267551		1.889663
        0.337500		5.999240		19.597500		460.894000		0.267551		1.889663
        0.342500		5.999240		19.597500		460.894000		0.267551		1.889663
        0.347500		5.999240		19.597500		460.894000		0.267551		1.889663
        0.352500		5.999240		19.597500		460.894000		0.267551		1.889663
        0.357500		5.999240		19.597500		460.894000		0.267551		1.889663
        0.362500		5.999240		19.597500		460.894000		0.267551		1.889663
        0.367500		5.999240		19.597500		460.894000		0.267551		1.889663
        0.372500		5.999240		19.597500		460.894000		0.267551		1.889663
        0.377500		5.999240		19.597500		460.894000		0.267551		1.889663
        0.382500		5.999240		19.597500		460.894000		0.267551		1.889663
        0.387500		5.999240		19.597500		460.894000		0.267551		1.889663
        0.392500		5.999240		19.597500		460.894000		0.267551		1.889663
        0.397500		5.999240		19.597500		460.894000		0.267551		1.889663
        0.402500		5.999240		19.597500		460.894000		0.267551		1.889663
        0.407500		5.999240		19.597500		460.894000		0.267551		1.889663
        0.412500		5.999240		19.597500		460.894000		0.267551		1.889663
        0.417500		5.999240		19.597500		460.894000		0.267551		1.889663
        0.422500		5.999240		19.597500		460.894000		0.267551		1.889663
        0.427500		5.999240		19.597500		460.894000		0.267551		1.889663
        0.432500		5.999240		19.597500		460.894000		0.267551		1.889663
        0.437500		5.999240		19.597500		460.894000		0.267551		1.889663
        0.442500		5.999240		19.597500		460.894000		0.267551		1.889663
        0.447500		5.999240		19.597500		460.894000		0.267551		1.889663
        0.452500		5.999240		19.597500		460.894000		0.267551		1.889663
        0.457500		5.999240		19.597500		460.894000		0.267551		1.889663
        0.462500		5.999240		19.597500		460.894000		0.267551		1.889663
        0.467500		5.999240		19.597500		460.894000		0.267551		1.889663
        0.472500		5.999240		19.597500		460.894000		0.267551		1.889663
        0.477500		5.999240		19.597500		460.894000		0.267551		1.889663
        0.482500		5.999240		19.597500		460.894000		0.267551		1.889663
        0.487500		5.999240		19.597500		460.894000		0.267551		1.889663
        0.492500		5.999240		19.597500		460.894000		0.267551		1.889663
        0.497500		5.999240		19.597500		460.894000		0.267551		1.889663
        0.502500		5.999240		19.597500		460.894000		0.267551		1.889663
        0.507500		5.999240		19.597500		460.894000		0.267551		1.889663
        0.512500		5.999240		19.597500		460.894000		0.267551		1.889663
        0.517500		5.999240		19.597500		460.894000		0.267551		1.889663
        0.522500		5.999240		19.597500		460.894008		0.267551		1.889662
        0.527500		7.657979		16.860441		682.788243		0.310509		1.509103
        0.532500		14.419130		8.748546		1700.539821		0.410724		0.680845
        0.537500		14.380121		8.739169		1698.059747		0.411237		0.679690
        0.542500		14.332444		8.723181		1695.715649		0.412036		0.677789
        0.547500		14.266397		8.706704		1693.037224		0.413289		0.675482
        0.552500		14.198330		8.689780		1690.345231		0.414610		0.673094
        0.557500		14.175192		8.672052		1687.473219		0.414581		0.671744
        0.562500		14.176328		8.653696		1684.422134		0.413799		0.670956
        0.567500		14.200199		8.641338		1682.380999		0.412603		0.670968
        0.572500		14.259094		8.637730		1681.847622		0.410768		0.672184
        0.577500		14.288679		8.637626		1681.871091		0.409923		0.672868
        0.582500		14.287336		8.639530		1682.160930		0.410032		0.672927
        0.587500		14.277629		8.645220		1683.077357		0.410535		0.672958
        0.592500		14.259048		8.656187		1684.909209		0.411517		0.673007
        0.597500		14.233904		8.670899		1687.387424		0.412850		0.673061
        0.602500		14.223780		8.682064		1689.194579		0.413587		0.673328
        0.607500		14.225200		8.687662		1689.979234		0.413738		0.673639
        0.612500		14.232841		8.690912		1690.346149		0.413605		0.673999
        0.617500		14.253503		8.693503		1690.622625		0.413073		0.674634
        0.622500		14.287861		8.696246		1690.978609		0.412167		0.675589
        0.627500		14.316912		8.700025		1691.586737		0.411478		0.676447
        0.632500		14.328778		8.706132		1692.691802		0.411406		0.676982
        0.637500		14.332399		8.716294		1694.628315		0.411773		0.677470
        0.642500		14.333280		8.730889		1697.488916		0.412442		0.678053
        0.647500		14.327411		8.741357		1699.688282		0.413146		0.678288
        0.652500		14.309265		8.743830		1700.477959		0.413862		0.677893
        0.657500		14.306501		8.743348		1700.820455		0.414025		0.677721
        0.662500		14.310913		8.740697		1700.825276		0.413899		0.677619
        0.667500		14.322396		8.735556		1700.367540		0.413456		0.677584
        0.672500		14.332780		8.726003		1699.091213		0.412846		0.677342
        0.677500		14.332640		8.710013		1696.602142		0.412245		0.676594
        0.682500		14.318819		8.686736		1692.726194		0.411701		0.675232
        0.687500		14.289681		8.661493		1688.435143		0.411494		0.673438
        0.692500		14.263098		8.645464		1685.768786		0.411610		0.672097
        0.697500		14.246257		8.638700		1684.727992		0.411842		0.671382
        0.702500		14.238271		8.636662		1684.478370		0.412012		0.671085
        0.707500		14.236635		8.636457		1684.510985		0.412068		0.671024
        0.712500		14.238300		8.637320		1684.668811		0.412058		0.671099
        0.717500		14.247410		8.639942		1685.104755		0.411901		0.671431
        0.722500		14.266653		8.645094		1685.965390		0.411556		0.672113
        0.727500		14.285661		8.653187		1687.322240		0.411339		0.672920
        0.732500		14.295719		8.663460		1689.024235		0.411464		0.673616
        0.737500		14.300168		8.673072		1690.541775		0.411706		0.674166
        0.742500		14.301566		8.680044		1691.511844		0.411902		0.674547
        0.747500		14.302643		8.685321		1692.114395		0.412017		0.674862
        0.752500		14.306718		8.690210		1692.607770		0.412020		0.675240
        0.757500		14.321057		8.695612		1693.189341		0.411749		0.675882
        0.762500		14.356625		8.702400		1694.051266		0.410938		0.677077
        0.767500		14.428514		8.711509		1695.390673		0.409214		0.679212
        0.772500		14.559399		8.722947		1697.229191		0.405975		0.682811
        0.777500		14.782845		8.732531		1698.810959		0.400211		0.688466
        0.782500		15.150911		8.736165		1699.379966		0.390619		0.697158
        0.787500		15.745710		8.736532		1699.426898		0.375874		0.710730
        0.792500		16.673655		8.735591		1699.330272		0.354935		0.731316
        0.797500		18.050004		8.732278		1698.829247		0.327774		0.760724
        0.802500		19.979443		8.724653		1697.429705		0.295876		0.799981
        0.807500		22.497543		8.710280		1694.385539		0.262288		0.848261
        0.812500		25.386361		8.687800		1689.090839		0.231715		0.900160
        0.817500		27.908740		8.667625		1683.966136		0.210133		0.943060
        0.822500		29.435987		8.660795		1682.133477		0.199014		0.968284
        0.827500		30.176358		8.659978		1681.757962		0.194088		0.980403
        0.832500		30.527025		8.660476		1681.833555		0.191867		0.986117
        0.837500		30.705591		8.662360		1682.363498		0.190811		0.989056
        0.842500		30.809467		8.666996		1683.527421		0.190300		0.990915
        0.847500		30.886852		8.674281		1685.510364		0.190046		0.992409
        0.852500		30.956043		8.683584		1688.131500		0.189917		0.993813
        0.857500		31.024169		8.694630		1691.133097		0.189836		0.995287
        0.862500		31.092737		8.706256		1694.409378		0.189785		0.996753
        0.867500		31.144896		8.714596		1696.879996		0.189743		0.997818
        0.872500		31.166563		8.717513		1697.848386		0.189719		0.998214
        0.877500		31.171324		8.717749		1698.126475		0.189722		0.998235
        0.882500		31.169382		8.716895		1698.155864		0.189737		0.998098
        0.887500		31.155550		8.714549		1697.847540		0.189786		0.997698
        0.892500		31.120376		8.709642		1696.750616		0.189878		0.996896
        0.897500		31.063854		8.700420		1694.520517		0.189974		0.995590
        0.902500		31.000681		8.688110		1691.447255		0.190016		0.994072
        0.907500		30.951649		8.677137		1688.719526		0.190010		0.992832
        0.912500		30.905178		8.664573		1685.543672		0.189938		0.991582
        0.917500		30.797259		8.630477		1676.593233		0.189591		0.988583
        0.922500		30.230612		8.458256		1630.944939		0.187886		0.973242
        0.927500		27.049573		7.462966		1388.164760		0.178724		0.880455
        0.932500		15.440176		2.380864		573.622918		0.129383		0.330129
        0.937500		6.096607		-6.075883		48.570758		0.027745		-1.819290
        0.942500		5.992420		-6.196330		46.095000		0.026789		-1.888186
        0.947500		5.992420		-6.196330		46.095000		0.026789		-1.888186
        0.952500		5.992420		-6.196330		46.095000		0.026789		-1.888186
        0.957500		5.992420		-6.196330		46.095000		0.026789		-1.888186
        0.962500		5.992420		-6.196330		46.095000		0.026789		-1.888186
        0.967500		5.992420		-6.196330		46.095000		0.026789		-1.888186
        0.972500		5.992420		-6.196330		46.095000		0.026789		-1.888186
        0.977500		5.992420		-6.196330		46.095000		0.026789		-1.888186
        0.982500		5.992420		-6.196330		46.095000		0.026789		-1.888186
        0.987500		5.992420		-6.196330		46.095000		0.026789		-1.888186
        0.992500		5.992420		-6.196330		46.095000		0.026789		-1.888186
        0.997500		5.992420		-6.196330		46.095000		0.026789		-1.888186
