Variables = X,Ro,U,P,T,M
Zone i = 200
        0.002500		5.999240		19.597500		460.894000		0.267551		1.889663
        0.007500		5.999240		19.597500		460.894000		0.267551		1.889663
        0.012500		5.999240		19.597500		460.894000		0.267551		1.889663
        0.017500		5.999240		19.597500		460.894000		0.267551		1.889663
        0.022500		5.999240		19.597500		460.894000		0.267551		1.889663
        0.027500		5.999240		19.597500		460.894000		0.267551		1.889663
        0.032500		5.999240		19.597500		460.894000		0.267551		1.889663
        0.037500		5.999240		19.597500		460.894000		0.267551		1.889663
        0.042500		5.999240		19.597500		460.894000		0.267551		1.889663
        0.047500		5.999240		19.597500		460.894000		0.267551		1.889663
        0.052500		5.999240		19.597500		460.894000		0.267551		1.889663
        0.057500		5.999240		19.597500		460.894000		0.267551		1.889663
        0.062500		5.999240		19.597500		460.894000		0.267551		1.889663
        0.067500		5.999240		19.597500		460.894000		0.267551		1.889663
        0.072500		5.999240		19.597500		460.894000		0.267551		1.889663
        0.077500		5.999240		19.597500		460.894000		0.267551		1.889663
        0.082500		5.999240		19.597500		460.894000		0.267551		1.889663
        0.087500		5.999240		19.597500		460.894000		0.267551		1.889663
        0.092500		5.999240		19.597500		460.894000		0.267551		1.889663
        0.097500		5.999240		19.597500		460.894000		0.267551		1.889663
        0.102500		5.999240		19.597500		460.894000		0.267551		1.889663
        0.107500		5.999240		19.597500		460.894000		0.267551		1.889663
        0.112500		5.999240		19.597500		460.894000		0.267551		1.889663
        0.117500		5.999240		19.597500		460.894000		0.267551		1.889663
        0.122500		5.999240		19.597500		460.894000		0.267551		1.889663
        0.127500		5.999240		19.597500		460.894000		0.267551		1.889663
        0.132500		5.999240		19.597500		460.894000		0.267551		1.889663
        0.137500		5.999240		19.597500		460.894000		0.267551		1.889663
        0.142500		5.999240		19.597500		460.894000		0.267551		1.889663
        0.147500		5.999240		19.597500		460.894000		0.267551		1.889663
        0.152500		5.999240		19.597500		460.894000		0.267551		1.889663
        0.157500		5.999240		19.597500		460.894000		0.267551		1.889663
        0.162500		5.999240		19.597500		460.894000		0.267551		1.889663
        0.167500		5.999240		19.597500		460.894000		0.267551		1.889663
        0.172500		5.999240		19.597500		460.894000		0.267551		1.889663
        0.177500		5.999240		19.597500		460.894000		0.267551		1.889663
        0.182500		5.999240		19.597500		460.894000		0.267551		1.889663
        0.187500		5.999240		19.597500		460.894000		0.267551		1.889663
        0.192500		5.999240		19.597500		460.894000		0.267551		1.889663
        0.197500		5.999240		19.597500		460.894000		0.267551		1.889663
        0.202500		5.999240		19.597500		460.894000		0.267551		1.889663
        0.207500		5.999240		19.597500		460.894000		0.267551		1.889663
        0.212500		5.999240		19.597500		460.894000		0.267551		1.889663
        0.217500		5.999240		19.597500		460.894000		0.267551		1.889663
        0.222500		5.999240		19.597500		460.894000		0.267551		1.889663
        0.227500		5.999240		19.597500		460.894000		0.267551		1.889663
        0.232500		5.999240		19.597500		460.894000		0.267551		1.889663
        0.237500		5.999240		19.597500		460.894000		0.267551		1.889663
        0.242500		5.999240		19.597500		460.894000		0.267551		1.889663
        0.247500		5.999240		19.597500		460.894000		0.267551		1.889663
        0.252500		5.999240		19.597500		460.894000		0.267551		1.889663
        0.257500		5.999240		19.597500		460.894000		0.267551		1.889663
        0.262500		5.999240		19.597500		460.894000		0.267551		1.889663
        0.267500		5.999240		19.597500		460.894000		0.267551		1.889663
        0.272500		5.999240		19.597500		460.894000		0.267551		1.889663
        0.277500		5.999240		19.597500		460.894000		0.267551		1.889663
        0.282500		5.999240		19.597500		460.894000		0.267551		1.889663
        0.287500		5.999240		19.597500		460.894000		0.267551		1.889663
        0.292500		5.999240		19.597500		460.894000		0.267551		1.889663
        0.297500		5.999240		19.597500		460.894000		0.267551		1.889663
        0.302500		5.999240		19.597500		460.894000		0.267551		1.889663
        0.307500		5.999240		19.597500		460.894000		0.267551		1.889663
        0.312500		5.999240		19.597500		460.894000		0.267551		1.889663
        0.317500		5.999240		19.597500		460.894000		0.267551		1.889663
        0.322500		5.999240		19.597500		460.894000		0.267551		1.889663
        0.327500		5.999240		19.597500		460.894000		0.267551		1.889663
        0.332500		5.999240		19.597500		460.894000		0.267551		1.889663
        0.337500		5.999240		19.597500		460.894000		0.267551		1.889663
        0.342500		5.999240		19.597500		460.894000		0.267551		1.889663
        0.347500		5.999240		19.597500		460.894000		0.267551		1.889663
        0.352500		5.999240		19.597500		460.894000		0.267551		1.889663
        0.357500		5.999240		19.597500		460.894000		0.267551		1.889663
        0.362500		5.999240		19.597500		460.894000		0.267551		1.889663
        0.367500		5.999240		19.597500		460.894000		0.267551		1.889663
        0.372500		5.999240		19.597500		460.894000		0.267551		1.889663
        0.377500		5.999240		19.597500		460.894000		0.267551		1.889663
        0.382500		5.999240		19.597500		460.894000		0.267551		1.889663
        0.387500		5.999240		19.597500		460.894000		0.267551		1.889663
        0.392500		5.999240		19.597500		460.894000		0.267551		1.889663
        0.397500		5.999240		19.597500		460.894000		0.267551		1.889663
        0.402500		5.999240		19.597500		460.894000		0.267551		1.889663
        0.407500		5.999240		19.597500		460.894000		0.267551		1.889663
        0.412500		5.999240		19.597500		460.894000		0.267551		1.889663
        0.417500		5.999240		19.597500		460.894000		0.267551		1.889663
        0.422500		5.999240		19.597500		460.894000		0.267551		1.889663
        0.427500		5.999240		19.597500		460.894000		0.267551		1.889663
        0.432500		5.999240		19.597500		460.894000		0.267551		1.889663
        0.437500		5.999240		19.597500		460.894000		0.267551		1.889663
        0.442500		5.999240		19.597500		460.894000		0.267551		1.889663
        0.447500		5.999240		19.597500		460.894000		0.267551		1.889663
        0.452500		5.999240		19.597500		460.894000		0.267551		1.889663
        0.457500		5.999240		19.597500		460.894000		0.267551		1.889663
        0.462500		5.999240		19.597500		460.894000		0.267551		1.889663
        0.467500		5.999240		19.597500		460.894000		0.267551		1.889663
        0.472500		5.999240		19.597500		460.894000		0.267551		1.889663
        0.477500		5.999240		19.597500		460.894000		0.267551		1.889663
        0.482500		5.999240		19.597500		460.894000		0.267551		1.889663
        0.487500		5.999240		19.597500		460.894000		0.267551		1.889663
        0.492500		5.999240		19.597500		460.894000		0.267551		1.889663
        0.497500		5.999240		19.597500		460.894000		0.267551		1.889663
        0.502500		5.999240		19.597500		460.894000		0.267551		1.889663
        0.507500		5.999240		19.597500		460.894000		0.267551		1.889663
        0.512500		5.999240		19.597500		460.894000		0.267551		1.889663
        0.517500		5.999240		19.597500		460.894000		0.267551		1.889663
        0.522500		5.999240		19.597499		460.894053		0.267551		1.889662
        0.527500		6.045913		19.516221		465.969396		0.268409		1.878815
        0.532500		12.720758		10.095853		1445.893429		0.395845		0.800327
        0.537500		14.254165		8.695885		1687.218083		0.412222		0.675515
        0.542500		14.301115		8.700678		1687.965238		0.411051		0.676850
        0.547500		14.324959		8.705080		1689.102879		0.410643		0.677528
        0.552500		14.325604		8.709796		1690.279432		0.410911		0.677675
        0.557500		14.312962		8.714081		1691.358200		0.411536		0.677493
        0.562500		14.297151		8.717248		1692.214089		0.412200		0.677193
        0.567500		14.284653		8.718850		1692.765990		0.412695		0.676911
        0.572500		14.278053		8.718762		1692.992304		0.412941		0.676703
        0.577500		14.277138		8.717162		1692.926234		0.412951		0.676570
        0.582500		14.280108		8.714422		1692.636575		0.412795		0.676485
        0.587500		14.284583		8.710979		1692.204244		0.412560		0.676410
        0.592500		14.288400		8.707234		1691.703383		0.412328		0.676310
        0.597500		14.290147		8.703495		1691.191170		0.412153		0.676163
        0.602500		14.289374		8.699966		1690.705826		0.412057		0.675968
        0.607500		14.286495		8.696768		1690.269809		0.412033		0.675739
        0.612500		14.282460		8.693962		1689.894934		0.412058		0.675500
        0.617500		14.278356		8.691578		1689.587154		0.412102		0.675279
        0.622500		14.275078		8.689632		1689.349958		0.412138		0.675098
        0.627500		14.273138		8.688136		1689.186224		0.412154		0.674969
        0.632500		14.272648		8.687104		1689.098778		0.412147		0.674894
        0.637500		14.273413		8.686545		1689.090049		0.412123		0.674871
        0.642500		14.275082		8.686461		1689.161179		0.412092		0.674889
        0.647500		14.277294		8.686842		1689.310932		0.412065		0.674941
        0.652500		14.279776		8.687660		1689.534648		0.412048		0.675019
        0.657500		14.282381		8.688862		1689.823527		0.412043		0.675116
        0.662500		14.285082		8.690374		1690.164380		0.412048		0.675229
        0.667500		14.287931		8.692099		1690.539989		0.412058		0.675356
        0.672500		14.291026		8.693923		1690.930059		0.412064		0.675493
        0.677500		14.294497		8.695726		1691.312673		0.412057		0.675638
        0.682500		14.298516		8.697385		1691.666066		0.412027		0.675792
        0.687500		14.303355		8.698793		1691.970488		0.411962		0.675955
        0.692500		14.309461		8.699859		1692.209888		0.411844		0.676134
        0.697500		14.317563		8.700523		1692.373212		0.411651		0.676344
        0.702500		14.328786		8.700753		1692.455146		0.411348		0.676611
        0.707500		14.344778		8.700553		1692.456260		0.410890		0.676973
        0.712500		14.367826		8.699954		1692.382586		0.410213		0.677484
        0.717500		14.400965		8.699013		1692.244741		0.409236		0.678219
        0.722500		14.448065		8.697807		1692.056731		0.407856		0.679271
        0.727500		14.513876		8.696423		1691.834627		0.405954		0.680753
        0.732500		14.604021		8.694954		1691.595282		0.403391		0.682796
        0.737500		14.724917		8.693492		1691.355262		0.400022		0.685550
        0.742500		14.883610		8.692122		1691.130036		0.395704		0.689172
        0.747500		15.087506		8.690918		1690.933373		0.390311		0.693820
        0.752500		15.344008		8.689939		1690.776839		0.383751		0.699647
        0.757500		15.660066		8.689229		1690.669366		0.375982		0.706781
        0.762500		16.041662		8.688817		1690.617001		0.367027		0.715317
        0.767500		16.493280		8.688708		1690.622818		0.356978		0.725306
        0.772500		17.017392		8.688889		1690.686783		0.345997		0.736742
        0.777500		17.614030		8.689328		1690.805268		0.334300		0.749557
        0.782500		18.280471		8.689974		1690.970420		0.322144		0.763625
        0.787500		19.011098		8.690767		1691.170242		0.309800		0.778761
        0.792500		19.797474		8.691631		1691.389915		0.297534		0.794731
        0.797500		20.628608		8.692484		1691.613411		0.285584		0.811268
        0.802500		21.491425		8.693247		1691.824214		0.274152		0.828081
        0.807500		22.371374		8.693857		1692.005477		0.263397		0.844878
        0.812500		23.253179		8.694274		1692.142675		0.253429		0.861374
        0.817500		24.121651		8.694476		1692.227099		0.244317		0.877311
        0.822500		24.962475		8.694457		1692.257782		0.236092		0.892461
        0.827500		25.762890		8.694234		1692.240337		0.228754		0.906637
        0.832500		26.512181		8.693858		1692.181472		0.222282		0.919703
        0.837500		27.202095		8.693394		1692.091920		0.216632		0.931568
        0.842500		27.827038		8.692905		1691.985935		0.211754		0.942185
        0.847500		28.384137		8.692423		1691.884931		0.207586		0.951545
        0.852500		28.872874		8.692006		1691.799313		0.204061		0.959680
        0.857500		29.294890		8.691690		1691.736694		0.201114		0.966651
        0.862500		29.653571		8.691494		1691.699037		0.198677		0.972540
        0.867500		29.953609		8.691404		1691.681914		0.196685		0.977442
        0.872500		30.200607		8.691341		1691.678063		0.195076		0.981458
        0.877500		30.400342		8.691198		1691.653202		0.193792		0.984689
        0.882500		30.558323		8.690741		1691.540678		0.192777		0.987225
        0.887500		30.678996		8.689480		1691.204496		0.191980		0.989128
        0.892500		30.764543		8.686366		1690.365357		0.191352		0.990396
        0.897500		30.812443		8.679161		1688.426559		0.190835		0.990913
        0.902500		30.810442		8.663087		1684.097328		0.190358		0.990317
        0.907500		30.726258		8.627799		1674.610806		0.189804		0.987720
        0.912500		30.485911		8.550856		1654.074815		0.188955		0.981110
        0.917500		29.930195		8.383409		1610.178068		0.187355		0.965994
        0.922500		28.734902		8.018828		1518.238697		0.184006		0.932356
        0.927500		26.302721		7.223013		1333.608892		0.176575		0.857315
        0.932500		21.781373		5.484704		996.054301		0.159257		0.685473
        0.937500		14.883803		1.786776		504.352389		0.118011		0.259416
        0.942500		7.611674		-4.221172		107.441495		0.049158		-0.949562
        0.947500		5.992420		-6.196330		46.095000		0.026789		-1.888186
        0.952500		5.992420		-6.196330		46.095000		0.026789		-1.888186
        0.957500		5.992420		-6.196330		46.095000		0.026789		-1.888186
        0.962500		5.992420		-6.196330		46.095000		0.026789		-1.888186
        0.967500		5.992420		-6.196330		46.095000		0.026789		-1.888186
        0.972500		5.992420		-6.196330		46.095000		0.026789		-1.888186
        0.977500		5.992420		-6.196330		46.095000		0.026789		-1.888186
        0.982500		5.992420		-6.196330		46.095000		0.026789		-1.888186
        0.987500		5.992420		-6.196330		46.095000		0.026789		-1.888186
        0.992500		5.992420		-6.196330		46.095000		0.026789		-1.888186
        0.997500		5.992420		-6.196330		46.095000		0.026789		-1.888186
