Variables = X,Ro,U,P,T,M
Zone i = 200
        0.002500		5.999240		19.597500		460.894000		0.267551		1.889663
        0.007500		5.999240		19.597500		460.894000		0.267551		1.889663
        0.012500		5.999240		19.597500		460.894000		0.267551		1.889663
        0.017500		5.999240		19.597500		460.894000		0.267551		1.889663
        0.022500		5.999240		19.597500		460.894000		0.267551		1.889663
        0.027500		5.999240		19.597500		460.894000		0.267551		1.889663
        0.032500		5.999240		19.597500		460.894000		0.267551		1.889663
        0.037500		5.999240		19.597500		460.894000		0.267551		1.889663
        0.042500		5.999240		19.597500		460.894000		0.267551		1.889663
        0.047500		5.999240		19.597500		460.894000		0.267551		1.889663
        0.052500		5.999240		19.597500		460.894000		0.267551		1.889663
        0.057500		5.999240		19.597500		460.894000		0.267551		1.889663
        0.062500		5.999240		19.597500		460.894000		0.267551		1.889663
        0.067500		5.999240		19.597500		460.894000		0.267551		1.889663
        0.072500		5.999240		19.597500		460.894000		0.267551		1.889663
        0.077500		5.999240		19.597500		460.894000		0.267551		1.889663
        0.082500		5.999240		19.597500		460.894000		0.267551		1.889663
        0.087500		5.999240		19.597500		460.894000		0.267551		1.889663
        0.092500		5.999240		19.597500		460.894000		0.267551		1.889663
        0.097500		5.999240		19.597500		460.894000		0.267551		1.889663
        0.102500		5.999240		19.597500		460.894000		0.267551		1.889663
        0.107500		5.999240		19.597500		460.894000		0.267551		1.889663
        0.112500		5.999240		19.597500		460.894000		0.267551		1.889663
        0.117500		5.999240		19.597500		460.894000		0.267551		1.889663
        0.122500		5.999240		19.597500		460.894000		0.267551		1.889663
        0.127500		5.999240		19.597500		460.894000		0.267551		1.889663
        0.132500		5.999240		19.597500		460.894000		0.267551		1.889663
        0.137500		5.999240		19.597500		460.894000		0.267551		1.889663
        0.142500		5.999240		19.597500		460.894000		0.267551		1.889663
        0.147500		5.999240		19.597500		460.894000		0.267551		1.889663
        0.152500		5.999240		19.597500		460.894000		0.267551		1.889663
        0.157500		5.999240		19.597500		460.894000		0.267551		1.889663
        0.162500		5.999240		19.597500		460.894000		0.267551		1.889663
        0.167500		5.999240		19.597500		460.894000		0.267551		1.889663
        0.172500		5.999240		19.597500		460.894000		0.267551		1.889663
        0.177500		5.999240		19.597500		460.894000		0.267551		1.889663
        0.182500		5.999240		19.597500		460.894000		0.267551		1.889663
        0.187500		5.999240		19.597500		460.894000		0.267551		1.889663
        0.192500		5.999240		19.597500		460.894000		0.267551		1.889663
        0.197500		5.999240		19.597500		460.894000		0.267551		1.889663
        0.202500		5.999240		19.597500		460.894000		0.267551		1.889663
        0.207500		5.999240		19.597500		460.894000		0.267551		1.889663
        0.212500		5.999240		19.597500		460.894000		0.267551		1.889663
        0.217500		5.999240		19.597500		460.894000		0.267551		1.889663
        0.222500		5.999240		19.597500		460.894000		0.267551		1.889663
        0.227500		5.999240		19.597500		460.894000		0.267551		1.889663
        0.232500		5.999240		19.597500		460.894000		0.267551		1.889663
        0.237500		5.999240		19.597500		460.894000		0.267551		1.889663
        0.242500		5.999240		19.597500		460.894000		0.267551		1.889663
        0.247500		5.999240		19.597500		460.894000		0.267551		1.889663
        0.252500		5.999240		19.597500		460.894000		0.267551		1.889663
        0.257500		5.999240		19.597500		460.894000		0.267551		1.889663
        0.262500		5.999240		19.597500		460.894000		0.267551		1.889663
        0.267500		5.999240		19.597500		460.894000		0.267551		1.889663
        0.272500		5.999240		19.597500		460.894000		0.267551		1.889663
        0.277500		5.999240		19.597500		460.894000		0.267551		1.889663
        0.282500		5.999240		19.597500		460.894000		0.267551		1.889663
        0.287500		5.999240		19.597500		460.894000		0.267551		1.889663
        0.292500		5.999240		19.597500		460.894000		0.267551		1.889663
        0.297500		5.999240		19.597500		460.894000		0.267551		1.889663
        0.302500		5.999240		19.597500		460.894000		0.267551		1.889663
        0.307500		5.999240		19.597500		460.894000		0.267551		1.889663
        0.312500		5.999240		19.597500		460.894000		0.267551		1.889663
        0.317500		5.999240		19.597500		460.894000		0.267551		1.889663
        0.322500		5.999240		19.597500		460.894000		0.267551		1.889663
        0.327500		5.999240		19.597500		460.894000		0.267551		1.889663
        0.332500		5.999240		19.597500		460.894000		0.267551		1.889663
        0.337500		5.999240		19.597500		460.894000		0.267551		1.889663
        0.342500		5.999240		19.597500		460.894000		0.267551		1.889663
        0.347500		5.999240		19.597500		460.894000		0.267551		1.889663
        0.352500		5.999240		19.597500		460.894000		0.267551		1.889663
        0.357500		5.999240		19.597500		460.894000		0.267551		1.889663
        0.362500		5.999240		19.597500		460.894000		0.267551		1.889663
        0.367500		5.999240		19.597500		460.894000		0.267551		1.889663
        0.372500		5.999240		19.597500		460.894000		0.267551		1.889663
        0.377500		5.999240		19.597500		460.894000		0.267551		1.889663
        0.382500		5.999240		19.597500		460.894000		0.267551		1.889663
        0.387500		5.999240		19.597500		460.894000		0.267551		1.889663
        0.392500		5.999240		19.597500		460.894000		0.267551		1.889663
        0.397500		5.999240		19.597500		460.894000		0.267551		1.889663
        0.402500		5.999240		19.597500		460.894000		0.267551		1.889663
        0.407500		5.999240		19.597500		460.894000		0.267551		1.889663
        0.412500		5.999240		19.597500		460.894000		0.267551		1.889663
        0.417500		5.999240		19.597500		460.894000		0.267551		1.889663
        0.422500		5.999240		19.597500		460.894000		0.267551		1.889663
        0.427500		5.999240		19.597500		460.894000		0.267551		1.889663
        0.432500		5.999240		19.597500		460.894000		0.267551		1.889663
        0.437500		5.999240		19.597500		460.894000		0.267551		1.889663
        0.442500		5.999240		19.597500		460.894000		0.267551		1.889663
        0.447500		5.999240		19.597500		460.894000		0.267551		1.889663
        0.452500		5.999240		19.597500		460.894000		0.267551		1.889663
        0.457500		5.999240		19.597500		460.894000		0.267551		1.889663
        0.462500		5.999240		19.597500		460.894000		0.267551		1.889663
        0.467500		5.999240		19.597500		460.894000		0.267551		1.889663
        0.472500		5.999240		19.597500		460.894000		0.267551		1.889663
        0.477500		5.999240		19.597500		460.894000		0.267551		1.889663
        0.482500		5.999240		19.597500		460.894000		0.267551		1.889663
        0.487500		5.999240		19.597500		460.894000		0.267551		1.889663
        0.492500		5.999240		19.597500		460.894000		0.267551		1.889663
        0.497500		5.999240		19.597500		460.894000		0.267551		1.889663
        0.502500		5.999240		19.597500		460.894000		0.267551		1.889663
        0.507500		5.999240		19.597500		460.894000		0.267551		1.889663
        0.512500		5.999240		19.597500		460.894000		0.267551		1.889663
        0.517500		5.999240		19.597500		460.894000		0.267551		1.889663
        0.522500		5.999240		19.597500		460.894000		0.267551		1.889663
        0.527500		5.999261		19.597466		460.895968		0.267551		1.889659
        0.532500		6.261848		19.143034		487.723519		0.271252		1.833206
        0.537500		10.937413		12.231126		1124.857494		0.358166		1.019321
        0.542500		12.745425		10.278549		1403.763980		0.383567		0.827748
        0.547500		13.703608		9.398795		1548.955229		0.393646		0.747147
        0.552500		14.167359		9.005753		1618.396189		0.397830		0.712128
        0.557500		14.375716		8.834628		1649.550794		0.399612		0.697037
        0.562500		14.467243		8.759937		1663.294429		0.400392		0.690471
        0.567500		14.507641		8.726826		1669.372391		0.400736		0.687566
        0.572500		14.526000		8.711719		1672.093799		0.400882		0.686250
        0.577500		14.534837		8.704467		1673.339413		0.400937		0.685632
        0.582500		14.539456		8.700678		1673.932719		0.400951		0.685321
        0.587500		14.542111		8.698445		1674.238350		0.400951		0.685145
        0.592500		14.543808		8.696944		1674.420497		0.400948		0.685030
        0.597500		14.545044		8.695828		1674.554419		0.400946		0.684944
        0.602500		14.546102		8.694953		1674.674702		0.400946		0.684875
        0.607500		14.547145		8.694260		1674.796369		0.400946		0.684820
        0.612500		14.548256		8.693718		1674.924431		0.400946		0.684777
        0.617500		14.549461		8.693301		1675.058541		0.400945		0.684746
        0.622500		14.550747		8.692981		1675.195583		0.400943		0.684723
        0.627500		14.552080		8.692724		1675.331318		0.400938		0.684706
        0.632500		14.553431		8.692497		1675.461515		0.400932		0.684693
        0.637500		14.554779		8.692270		1675.582696		0.400924		0.684682
        0.642500		14.556126		8.692017		1675.692577		0.400913		0.684672
        0.647500		14.557501		8.691723		1675.790239		0.400899		0.684661
        0.652500		14.558960		8.691375		1675.876105		0.400879		0.684650
        0.657500		14.560598		8.690969		1675.951797		0.400852		0.684641
        0.662500		14.562554		8.690505		1676.019943		0.400815		0.684637
        0.667500		14.565027		8.689982		1676.083977		0.400762		0.684641
        0.672500		14.568300		8.689401		1676.147972		0.400687		0.684659
        0.677500		14.572764		8.688758		1676.216526		0.400581		0.684699
        0.682500		14.578953		8.688049		1676.294688		0.400429		0.684772
        0.687500		14.587590		8.687259		1676.387935		0.400215		0.684894
        0.692500		14.599629		8.686370		1676.502199		0.399912		0.685083
        0.697500		14.616310		8.685352		1676.643906		0.399489		0.685365
        0.702500		14.639221		8.684170		1676.820037		0.398906		0.685772
        0.707500		14.670345		8.682779		1677.038162		0.398111		0.686346
        0.712500		14.712120		8.681130		1677.306418		0.397044		0.687138
        0.717500		14.767483		8.679172		1677.633398		0.395633		0.688207
        0.722500		14.839896		8.676858		1678.027909		0.393795		0.689627
        0.727500		14.933361		8.674150		1678.498567		0.391440		0.691483
        0.732500		15.052403		8.671027		1679.053218		0.388473		0.693869
        0.737500		15.202025		8.667492		1679.698187		0.384797		0.696890
        0.742500		15.387625		8.663580		1680.437362		0.380323		0.700661
        0.747500		15.614874		8.659358		1681.271181		0.374974		0.705297
        0.752500		15.889543		8.654935		1682.195566		0.368695		0.710914
        0.757500		16.217287		8.650452		1683.200926		0.361460		0.717622
        0.762500		16.603369		8.646082		1684.271345		0.353279		0.725517
        0.767500		17.052339		8.642013		1685.384108		0.344205		0.734672
        0.772500		17.567664		8.638443		1686.509733		0.334331		0.745133
        0.777500		18.151333		8.635558		1687.612665		0.323792		0.756910
        0.782500		18.803449		8.633517		1688.652718		0.312755		0.769967
        0.787500		19.521862		8.632441		1689.587304		0.301413		0.784224
        0.792500		20.301879		8.632403		1690.374321		0.289967		0.799548
        0.797500		21.136101		8.633422		1690.975453		0.278621		0.815761
        0.802500		22.014457		8.635462		1691.359521		0.267565		0.832641
        0.807500		22.924443		8.638441		1691.505439		0.256967		0.849932
        0.812500		23.851607		8.642239		1691.404349		0.246963		0.867356
        0.817500		24.780233		8.646708		1691.060627		0.237660		0.884626
        0.822500		25.694187		8.651682		1690.491588		0.229129		0.901462
        0.827500		26.577836		8.656992		1689.725950		0.221411		0.917603
        0.832500		27.416939		8.662473		1688.801260		0.214517		0.932821
        0.837500		28.199421		8.667973		1687.760659		0.208436		0.946931
        0.842500		28.915944		8.673355		1686.649299		0.203137		0.959797
        0.847500		29.560223		8.678508		1685.510196		0.198575		0.971335
        0.852500		30.129207		8.683308		1684.390383		0.194696		0.981508
        0.857500		30.622796		8.687646		1683.329350		0.191437		0.990321
        0.862500		31.028647		8.695536		1681.242907		0.188699		0.998386
        0.867500		31.335798		8.710843		1677.032366		0.186381		1.006343
        0.872500		31.631593		8.710767		1676.854933		0.184619		1.011126
        0.877500		31.869669		8.709833		1676.634036		0.183216		1.014882
        0.882500		32.054026		8.707766		1676.098176		0.182104		1.017734
        0.887500		32.186958		8.703189		1674.866761		0.181218		1.019681
        0.892500		32.264091		8.693091		1672.109541		0.180488		1.020558
        0.897500		32.266950		8.670903		1666.025713		0.179815		1.019855
        0.902500		32.147350		8.622291		1652.730188		0.179044		1.016320
        0.907500		31.782805		8.519253		1623.061570		0.177846		1.007549
        0.912500		30.810250		8.329536		1550.917691		0.175305		0.992225
        0.917500		28.863132		7.891655		1411.054329		0.170256		0.953902
        0.922500		25.270366		6.913554		1159.842322		0.159841		0.862469
        0.927500		19.604268		4.809510		779.254775		0.138430		0.644722
        0.932500		12.566710		0.751442		362.888602		0.100567		0.118183
        0.937500		7.127413		-4.581268		95.069089		0.046453		-1.060152
        0.942500		5.992420		-6.196330		46.095000		0.026789		-1.888186
        0.947500		5.992420		-6.196330		46.095000		0.026789		-1.888186
        0.952500		5.992420		-6.196330		46.095000		0.026789		-1.888186
        0.957500		5.992420		-6.196330		46.095000		0.026789		-1.888186
        0.962500		5.992420		-6.196330		46.095000		0.026789		-1.888186
        0.967500		5.992420		-6.196330		46.095000		0.026789		-1.888186
        0.972500		5.992420		-6.196330		46.095000		0.026789		-1.888186
        0.977500		5.992420		-6.196330		46.095000		0.026789		-1.888186
        0.982500		5.992420		-6.196330		46.095000		0.026789		-1.888186
        0.987500		5.992420		-6.196330		46.095000		0.026789		-1.888186
        0.992500		5.992420		-6.196330		46.095000		0.026789		-1.888186
        0.997500		5.992420		-6.196330		46.095000		0.026789		-1.888186
