Variables = X,Ro,U,P,T,M
Zone i = 200
        0.002500		5.999240		19.597500		460.894000		0.267551		1.889663
        0.007500		5.999240		19.597500		460.894000		0.267551		1.889663
        0.012500		5.999240		19.597500		460.894000		0.267551		1.889663
        0.017500		5.999240		19.597500		460.894000		0.267551		1.889663
        0.022500		5.999240		19.597500		460.894000		0.267551		1.889663
        0.027500		5.999240		19.597500		460.894000		0.267551		1.889663
        0.032500		5.999240		19.597500		460.894000		0.267551		1.889663
        0.037500		5.999240		19.597500		460.894000		0.267551		1.889663
        0.042500		5.999240		19.597500		460.894000		0.267551		1.889663
        0.047500		5.999240		19.597500		460.894000		0.267551		1.889663
        0.052500		5.999240		19.597500		460.894000		0.267551		1.889663
        0.057500		5.999240		19.597500		460.894000		0.267551		1.889663
        0.062500		5.999240		19.597500		460.894000		0.267551		1.889663
        0.067500		5.999240		19.597500		460.894000		0.267551		1.889663
        0.072500		5.999240		19.597500		460.894000		0.267551		1.889663
        0.077500		5.999240		19.597500		460.894000		0.267551		1.889663
        0.082500		5.999240		19.597500		460.894000		0.267551		1.889663
        0.087500		5.999240		19.597500		460.894000		0.267551		1.889663
        0.092500		5.999240		19.597500		460.894000		0.267551		1.889663
        0.097500		5.999240		19.597500		460.894000		0.267551		1.889663
        0.102500		5.999240		19.597500		460.894000		0.267551		1.889663
        0.107500		5.999240		19.597500		460.894000		0.267551		1.889663
        0.112500		5.999240		19.597500		460.894000		0.267551		1.889663
        0.117500		5.999240		19.597500		460.894000		0.267551		1.889663
        0.122500		5.999240		19.597500		460.894000		0.267551		1.889663
        0.127500		5.999240		19.597500		460.894000		0.267551		1.889663
        0.132500		5.999240		19.597500		460.894000		0.267551		1.889663
        0.137500		5.999240		19.597500		460.894000		0.267551		1.889663
        0.142500		5.999240		19.597500		460.894000		0.267551		1.889663
        0.147500		5.999240		19.597500		460.894000		0.267551		1.889663
        0.152500		5.999240		19.597500		460.894000		0.267551		1.889663
        0.157500		5.999240		19.597500		460.894000		0.267551		1.889663
        0.162500		5.999240		19.597500		460.894000		0.267551		1.889663
        0.167500		5.999240		19.597500		460.894000		0.267551		1.889663
        0.172500		5.999240		19.597500		460.894000		0.267551		1.889663
        0.177500		5.999240		19.597500		460.894000		0.267551		1.889663
        0.182500		5.999240		19.597500		460.894000		0.267551		1.889663
        0.187500		5.999240		19.597500		460.894000		0.267551		1.889663
        0.192500		5.999240		19.597500		460.894000		0.267551		1.889663
        0.197500		5.999240		19.597500		460.894000		0.267551		1.889663
        0.202500		5.999240		19.597500		460.894000		0.267551		1.889663
        0.207500		5.999240		19.597500		460.894000		0.267551		1.889663
        0.212500		5.999240		19.597500		460.894000		0.267551		1.889663
        0.217500		5.999240		19.597500		460.894000		0.267551		1.889663
        0.222500		5.999240		19.597500		460.894000		0.267551		1.889663
        0.227500		5.999240		19.597500		460.894000		0.267551		1.889663
        0.232500		5.999240		19.597500		460.894000		0.267551		1.889663
        0.237500		5.999240		19.597500		460.894000		0.267551		1.889663
        0.242500		5.999240		19.597500		460.894000		0.267551		1.889663
        0.247500		5.999240		19.597500		460.894000		0.267551		1.889663
        0.252500		5.999240		19.597500		460.894000		0.267551		1.889663
        0.257500		5.999240		19.597500		460.894000		0.267551		1.889663
        0.262500		5.999240		19.597500		460.894000		0.267551		1.889663
        0.267500		5.999240		19.597500		460.894000		0.267551		1.889663
        0.272500		5.999240		19.597500		460.894000		0.267551		1.889663
        0.277500		5.999240		19.597500		460.894000		0.267551		1.889663
        0.282500		5.999240		19.597500		460.894000		0.267551		1.889663
        0.287500		5.999240		19.597500		460.894000		0.267551		1.889663
        0.292500		5.999240		19.597500		460.894000		0.267551		1.889663
        0.297500		5.999240		19.597500		460.894000		0.267551		1.889663
        0.302500		5.999240		19.597500		460.894000		0.267551		1.889663
        0.307500		5.999240		19.597500		460.894000		0.267551		1.889663
        0.312500		5.999240		19.597500		460.894000		0.267551		1.889663
        0.317500		5.999240		19.597500		460.894000		0.267551		1.889663
        0.322500		5.999240		19.597500		460.894000		0.267551		1.889663
        0.327500		5.999240		19.597500		460.894000		0.267551		1.889663
        0.332500		5.999240		19.597500		460.894000		0.267551		1.889663
        0.337500		5.999240		19.597500		460.894000		0.267551		1.889663
        0.342500		5.999240		19.597500		460.894000		0.267551		1.889663
        0.347500		5.999240		19.597500		460.894000		0.267551		1.889663
        0.352500		5.999240		19.597500		460.894000		0.267551		1.889663
        0.357500		5.999240		19.597500		460.894000		0.267551		1.889663
        0.362500		5.999240		19.597500		460.894000		0.267551		1.889663
        0.367500		5.999240		19.597500		460.894000		0.267551		1.889663
        0.372500		5.999240		19.597500		460.894000		0.267551		1.889663
        0.377500		5.999240		19.597500		460.894000		0.267551		1.889663
        0.382500		5.999240		19.597500		460.894000		0.267551		1.889663
        0.387500		5.999240		19.597500		460.894000		0.267551		1.889663
        0.392500		5.999240		19.597500		460.894000		0.267551		1.889663
        0.397500		5.999240		19.597500		460.894000		0.267551		1.889663
        0.402500		5.999240		19.597500		460.894000		0.267551		1.889663
        0.407500		5.999240		19.597500		460.894000		0.267551		1.889663
        0.412500		5.999240		19.597500		460.894000		0.267551		1.889663
        0.417500		5.999240		19.597500		460.894000		0.267551		1.889663
        0.422500		5.999240		19.597500		460.894000		0.267551		1.889663
        0.427500		5.999240		19.597500		460.894000		0.267551		1.889663
        0.432500		5.999240		19.597500		460.894000		0.267551		1.889663
        0.437500		5.999240		19.597500		460.894000		0.267551		1.889663
        0.442500		5.999240		19.597500		460.894000		0.267551		1.889663
        0.447500		5.999240		19.597500		460.894000		0.267551		1.889663
        0.452500		5.999240		19.597500		460.894000		0.267551		1.889663
        0.457500		5.999240		19.597500		460.894000		0.267551		1.889663
        0.462500		5.999240		19.597500		460.894000		0.267551		1.889663
        0.467500		5.999240		19.597500		460.894000		0.267551		1.889663
        0.472500		5.999240		19.597500		460.894000		0.267551		1.889663
        0.477500		5.999240		19.597500		460.894000		0.267551		1.889663
        0.482500		5.999240		19.597500		460.894000		0.267551		1.889663
        0.487500		5.999240		19.597500		460.894000		0.267551		1.889663
        0.492500		5.999240		19.597500		460.894000		0.267551		1.889663
        0.497500		5.999240		19.597500		460.894000		0.267551		1.889663
        0.502500		5.999240		19.597500		460.894000		0.267551		1.889663
        0.507500		5.999240		19.597500		460.894000		0.267551		1.889663
        0.512500		5.999240		19.597500		460.894000		0.267551		1.889663
        0.517500		5.999240		19.597500		460.894000		0.267551		1.889663
        0.522500		5.999240		19.597500		460.894000		0.267551		1.889663
        0.527500		5.999240		19.597500		460.894005		0.267551		1.889662
        0.532500		6.127858		19.384336		473.630098		0.269174		1.863466
        0.537500		11.613794		11.191533		1225.369640		0.367447		0.920829
        0.542500		14.117372		9.049593		1604.711288		0.395863		0.717370
        0.547500		14.550808		8.824092		1681.581647		0.402469		0.693730
        0.552500		14.606864		8.770139		1690.078414		0.402951		0.689077
        0.557500		14.604478		8.742767		1687.897028		0.402496		0.687314
        0.562500		14.595153		8.716742		1682.719053		0.401518		0.686102
        0.567500		14.583676		8.698268		1679.208949		0.400996		0.685094
        0.572500		14.578540		8.694060		1678.645649		0.401002		0.684756
        0.577500		14.573407		8.694071		1678.806129		0.401182		0.684604
        0.582500		14.564466		8.695181		1679.035168		0.401483		0.684435
        0.587500		14.551863		8.695050		1678.864047		0.401790		0.684163
        0.592500		14.541979		8.691909		1678.000379		0.401856		0.683859
        0.597500		14.531961		8.681321		1675.554639		0.401547		0.683289
        0.602500		14.512727		8.658962		1670.838142		0.400947		0.682039
        0.607500		14.492432		8.636991		1666.591838		0.400488		0.680698
        0.612500		14.487703		8.631869		1665.647604		0.400392		0.680376
        0.617500		14.487538		8.632490		1665.879860		0.400453		0.680374
        0.622500		14.490663		8.637941		1667.269785		0.400700		0.680593
        0.627500		14.504725		8.653848		1670.684137		0.401132		0.681480
        0.632500		14.536144		8.681135		1676.194155		0.401585		0.683243
        0.637500		14.565626		8.703192		1680.473103		0.401795		0.684799
        0.642500		14.581888		8.711015		1682.206547		0.401761		0.685444
        0.647500		14.591971		8.712983		1682.851037		0.401637		0.685705
        0.652500		14.595554		8.713023		1683.001901		0.401574		0.685761
        0.657500		14.596157		8.712199		1683.005971		0.401559		0.685710
        0.662500		14.595253		8.710720		1682.900711		0.401559		0.685593
        0.667500		14.592029		8.708611		1682.710663		0.401602		0.685390
        0.672500		14.586460		8.705769		1682.429170		0.401688		0.685093
        0.677500		14.579984		8.701666		1681.912687		0.401743		0.684723
        0.682500		14.573058		8.695144		1680.854565		0.401681		0.684263
        0.687500		14.563486		8.684231		1678.800488		0.401454		0.683598
        0.692500		14.547596		8.667104		1675.374707		0.401072		0.682574
        0.697500		14.530869		8.649222		1671.830381		0.400685		0.681495
        0.702500		14.525036		8.641749		1670.261538		0.400469		0.681089
        0.707500		14.524356		8.640535		1669.839212		0.400387		0.681064
        0.712500		14.524334		8.641502		1669.797840		0.400377		0.681148
        0.717500		14.525582		8.644008		1670.161217		0.400430		0.681301
        0.722500		14.529744		8.649308		1671.205618		0.400566		0.681603
        0.727500		14.539092		8.658546		1673.049261		0.400750		0.682174
        0.732500		14.553804		8.671287		1675.510530		0.400934		0.683021
        0.737500		14.571647		8.685652		1678.159087		0.401076		0.684032
        0.742500		14.591031		8.699593		1680.580078		0.401121		0.685091
        0.747500		14.609410		8.709538		1682.084886		0.400975		0.685999
        0.752500		14.626236		8.714351		1682.598590		0.400636		0.686668
        0.757500		14.646920		8.716523		1682.724045		0.400100		0.687299
        0.762500		14.679178		8.717420		1682.638364		0.399200		0.688144
        0.767500		14.735435		8.716788		1682.388584		0.397617		0.689463
        0.772500		14.835650		8.713864		1681.926874		0.394823		0.691666
        0.777500		15.012185		8.707324		1680.938242		0.389951		0.695451
        0.782500		15.315844		8.695834		1678.884709		0.381753		0.701952
        0.787500		15.824915		8.680854		1675.802762		0.368794		0.712948
        0.792500		16.663820		8.673605		1673.929613		0.349836		0.731399
        0.797500		17.974611		8.672356		1672.868231		0.324119		0.759752
        0.802500		19.894205		8.673641		1672.423311		0.292767		0.799517
        0.807500		22.515128		8.674584		1672.505741		0.258699		0.850625
        0.812500		25.706371		8.671883		1674.213093		0.226815		0.908164
        0.817500		28.737901		8.675331		1675.745919		0.203074		0.960164
        0.822500		30.708421		8.691352		1675.304967		0.189993		0.994501
        0.827500		31.746587		8.709766		1676.609128		0.183923		1.012920
        0.832500		32.259334		8.721375		1680.055648		0.181372		1.021379
        0.837500		32.507342		8.727195		1681.911223		0.180187		1.025416
        0.842500		32.622263		8.727618		1682.220498		0.179585		1.027182
        0.847500		32.674593		8.726357		1682.047223		0.179279		1.027910
        0.852500		32.692454		8.722399		1681.079928		0.179078		1.028020
        0.857500		32.689786		8.713889		1678.852802		0.178856		1.027656
        0.862500		32.662250		8.701760		1675.625075		0.178662		1.026781
        0.867500		32.631555		8.694106		1673.673682		0.178622		1.025993
        0.872500		32.618489		8.692152		1673.265664		0.178650		1.025682
        0.877500		32.608526		8.692105		1673.308116		0.178709		1.025507
        0.882500		32.598834		8.693337		1673.581476		0.178791		1.025416
        0.887500		32.597381		8.697122		1674.447339		0.178892		1.025574
        0.892500		32.610934		8.705209		1676.421027		0.179028		1.026137
        0.897500		32.639452		8.713823		1678.516134		0.179095		1.026960
        0.902500		32.642891		8.714896		1678.528904		0.179078		1.027136
        0.907500		32.619715		8.707792		1676.341248		0.178972		1.026604
        0.912500		32.419806		8.653595		1661.190527		0.178448		1.021711
        0.917500		31.036514		8.361924		1561.838964		0.175253		0.996232
        0.922500		24.489656		6.555552		1110.041028		0.157855		0.822938
        0.927500		10.353201		-0.760037		269.431223		0.090631		-0.125917
        0.932500		6.006423		-6.180423		46.484643		0.026952		-1.877619
        0.937500		5.992420		-6.196330		46.095000		0.026789		-1.888186
        0.942500		5.992420		-6.196330		46.095000		0.026789		-1.888186
        0.947500		5.992420		-6.196330		46.095000		0.026789		-1.888186
        0.952500		5.992420		-6.196330		46.095000		0.026789		-1.888186
        0.957500		5.992420		-6.196330		46.095000		0.026789		-1.888186
        0.962500		5.992420		-6.196330		46.095000		0.026789		-1.888186
        0.967500		5.992420		-6.196330		46.095000		0.026789		-1.888186
        0.972500		5.992420		-6.196330		46.095000		0.026789		-1.888186
        0.977500		5.992420		-6.196330		46.095000		0.026789		-1.888186
        0.982500		5.992420		-6.196330		46.095000		0.026789		-1.888186
        0.987500		5.992420		-6.196330		46.095000		0.026789		-1.888186
        0.992500		5.992420		-6.196330		46.095000		0.026789		-1.888186
        0.997500		5.992420		-6.196330		46.095000		0.026789		-1.888186
