Variables = X,Ro,U,P,T,M
Zone i = 200
        0.002500		0.985800		0.533968		980.186205		3.462756		0.014312
        0.007500		0.983486		0.621541		976.969506		3.459513		0.016667
        0.012500		0.980930		0.718454		973.420089		3.455926		0.019275
        0.017500		0.978127		0.824935		969.532769		3.451988		0.022145
        0.022500		0.975075		0.941135		965.305594		3.447695		0.025280
        0.027500		0.971774		1.067131		960.739765		3.443043		0.028684
        0.032500		0.968226		1.202924		955.839474		3.438034		0.032357
        0.037500		0.964435		1.348449		950.611665		3.432671		0.036300
        0.042500		0.960406		1.503576		945.065742		3.426960		0.040510
        0.047500		0.956147		1.668123		939.213242		3.420909		0.044983
        0.052500		0.951666		1.841860		933.067489		3.414527		0.049714
        0.057500		0.946972		2.024518		926.643245		3.407826		0.054698
        0.062500		0.942076		2.215797		919.956368		3.400816		0.059927
        0.067500		0.936989		2.415373		913.023492		3.393511		0.065395
        0.072500		0.931723		2.622904		905.861737		3.385925		0.071094
        0.077500		0.926287		2.838037		898.488440		3.378071		0.077014
        0.082500		0.920695		3.060414		890.920936		3.369964		0.083149
        0.087500		0.914958		3.289675		883.176359		3.361617		0.089488
        0.092500		0.909087		3.525465		875.271486		3.353044		0.096025
        0.097500		0.903093		3.767432		867.222607		3.344260		0.102750
        0.102500		0.896987		4.015234		859.045431		3.335277		0.109656
        0.107500		0.890779		4.268541		850.755007		3.326108		0.116734
        0.112500		0.884480		4.527033		842.365679		3.316765		0.123978
        0.117500		0.878098		4.790403		833.891053		3.307261		0.131379
        0.122500		0.871642		5.058359		825.343981		3.297606		0.138930
        0.127500		0.865121		5.330623		816.736562		3.287811		0.146626
        0.132500		0.858544		5.606930		808.080151		3.277887		0.154460
        0.137500		0.851916		5.887028		799.385373		3.267843		0.162425
        0.142500		0.845247		6.170681		790.662154		3.257688		0.170516
        0.147500		0.838541		6.457665		781.919742		3.247430		0.178728
        0.152500		0.831806		6.747767		773.166747		3.237079		0.187055
        0.157500		0.825047		7.040787		764.411170		3.226640		0.195494
        0.162500		0.818269		7.336537		755.660442		3.216123		0.204038
        0.167500		0.811478		7.634837		746.921458		3.205532		0.212685
        0.172500		0.804679		7.935519		738.200616		3.194876		0.221429
        0.177500		0.797875		8.238422		729.503854		3.184159		0.230268
        0.182500		0.791072		8.543393		720.836682		3.173388		0.239197
        0.187500		0.784272		8.850288		712.204221		3.162567		0.248213
        0.192500		0.777480		9.158966		703.611235		3.151704		0.257312
        0.197500		0.770700		9.469296		695.062162		3.140801		0.266492
        0.202500		0.763934		9.781146		686.561153		3.129864		0.275749
        0.207500		0.757185		10.094393		678.112099		3.118899		0.285080
        0.212500		0.750458		10.408913		669.718661		3.107908		0.294482
        0.217500		0.743754		10.724585		661.384306		3.096897		0.303951
        0.222500		0.737076		11.041290		653.112337		3.085870		0.313486
        0.227500		0.730427		11.358907		644.905920		3.074831		0.323082
        0.232500		0.723811		11.677313		636.768124		3.063785		0.332737
        0.237500		0.717228		11.996384		628.701951		3.052737		0.342446
        0.242500		0.710683		12.315990		620.710372		3.041690		0.352208
        0.247500		0.704178		12.635996		612.796367		3.030649		0.362017
        0.252500		0.697716		12.956256		604.962969		3.019621		0.371869
        0.257500		0.691299		13.276616		597.213310		3.008609		0.381761
        0.262500		0.684931		13.596909		589.550673		2.997620		0.391687
        0.267500		0.678615		13.916950		581.978557		2.986659		0.401641
        0.272500		0.672355		14.236535		574.500744		2.975735		0.411618
        0.277500		0.666154		14.555435		567.121385		2.964854		0.421610
        0.282500		0.660018		14.873390		559.845091		2.954025		0.431608
        0.287500		0.653951		15.190105		552.677051		2.943259		0.441605
        0.292500		0.647958		15.505240		545.623165		2.932566		0.451587
        0.297500		0.642047		15.818402		538.690203		2.921959		0.461543
        0.302500		0.636225		16.129135		531.885994		2.911453		0.471458
        0.307500		0.630500		16.436902		525.219648		2.901067		0.481314
        0.312500		0.624883		16.741075		518.701813		2.890820		0.491089
        0.317500		0.619385		17.040916		512.344977		2.880738		0.500758
        0.322500		0.614021		17.335554		506.163801		2.870847		0.510293
        0.327500		0.608806		17.623964		500.175486		2.861183		0.519658
        0.332500		0.603760		17.904943		494.400146		2.851783		0.528812
        0.337500		0.598904		18.177088		488.861162		2.842695		0.537708
        0.342500		0.594265		18.438775		483.585439		2.833970		0.546288
        0.347500		0.589870		18.688156		478.603481		2.825669		0.554489
        0.352500		0.585753		18.923164		473.949132		2.817860		0.562239
        0.357500		0.581947		19.141559		469.658800		2.810615		0.569461
        0.362500		0.578487		19.341007		465.769934		2.804010		0.576071
        0.367500		0.575410		19.519222		462.318557		2.798119		0.581991
        0.372500		0.572743		19.674166		459.335750		2.793008		0.587147
        0.377500		0.570510		19.804306		456.843245		2.788728		0.591485
        0.382500		0.568718		19.908888		454.848645		2.785300		0.594974
        0.387500		0.567359		19.988182		453.341252		2.782717		0.597621
        0.392500		0.566407		20.043622		452.289788		2.780928		0.599471
        0.397500		0.565817		20.077762		451.643157		2.779850		0.600609
        0.402500		0.565529		20.094047		451.334751		2.779367		0.601148
        0.407500		0.565476		20.096408		451.289650		2.779349		0.601221
        0.412500		0.565592		20.088796		451.433078		2.779664		0.600959
        0.417500		0.565816		20.074761		451.697979		2.780194		0.600482
        0.422500		0.566099		20.057184		452.030064		2.780845		0.599886
        0.427500		0.566407		20.038166		452.389624		2.781545		0.599242
        0.432500		0.566715		20.019085		452.750628		2.782250		0.598595
        0.437500		0.567011		20.000732		453.098038		2.782932		0.597973
        0.442500		0.567288		19.983488		453.424657		2.783580		0.597388
        0.447500		0.567543		19.967469		453.728176		2.784189		0.596844
        0.452500		0.567778		19.952652		454.009027		2.784761		0.596340
        0.457500		0.567993		19.938949		454.268837		2.785299		0.595872
        0.462500		0.568191		19.926249		454.509678		2.785806		0.595439
        0.467500		0.568373		19.914443		454.733615		2.786286		0.595035
        0.472500		0.568541		19.903432		454.942521		2.786742		0.594657
        0.477500		0.568696		19.893127		455.138035		2.787178		0.594303
        0.482500		0.568840		19.883455		455.321564		2.787596		0.593969
        0.487500		0.568974		19.874351		455.494315		2.787999		0.593654
        0.492500		0.569098		19.865761		455.657325		2.788389		0.593356
        0.497500		0.569213		19.857637		455.811489		2.788767		0.593073
        0.502500		0.569321		19.849938		455.957585		2.789135		0.592804
        0.507500		0.569420		19.842627		456.096292		2.789495		0.592548
        0.512500		0.569513		19.835674		456.228207		2.789847		0.592303
        0.517500		0.569599		19.829050		456.353859		2.790194		0.592068
        0.522500		0.569679		19.822731		456.473717		2.790535		0.591843
        0.527500		0.569753		19.816694		456.588200		2.790873		0.591627
        0.532500		0.569821		19.810919		456.697684		2.791209		0.591419
        0.537500		0.569884		19.805389		456.802507		2.791543		0.591219
        0.542500		0.569941		19.800087		456.902973		2.791876		0.591025
        0.547500		0.569993		19.794999		456.999361		2.792210		0.590838
        0.552500		0.570040		19.790111		457.091923		2.792546		0.590657
        0.557500		0.570082		19.785411		457.180889		2.792884		0.590481
        0.562500		0.570119		19.780889		457.266468		2.793227		0.590309
        0.567500		0.570150		19.776533		457.348855		2.793574		0.590143
        0.572500		0.570177		19.772335		457.428226		2.793928		0.589980
        0.577500		0.570199		19.768286		457.504746		2.794290		0.589821
        0.582500		0.570215		19.764378		457.578566		2.794661		0.589665
        0.587500		0.570226		19.760603		457.649825		2.795043		0.589512
        0.592500		0.570231		19.756954		457.718653		2.795436		0.589362
        0.597500		0.570232		19.753426		457.785172		2.795840		0.589214
        0.602500		0.570228		19.750012		457.849492		2.796251		0.589069
        0.607500		0.570223		19.746707		457.911720		2.796656		0.588928
        0.612500		0.570223		19.743505		457.971953		2.797023		0.588794
        0.617500		0.570242		19.740402		458.030285		2.797287		0.588673
        0.622500		0.570307		19.737394		458.086803		2.797313		0.588581
        0.627500		0.570470		19.734475		458.141595		2.796848		0.588543
        0.632500		0.570824		19.731642		458.194746		2.795438		0.588607
        0.637500		0.571529		19.728890		458.246348		2.792303		0.588855
        0.642500		0.572849		19.726218		458.296504		2.786176		0.589422
        0.647500		0.575197		19.723620		458.345335		2.775097		0.590520
        0.652500		0.579201		19.721094		458.392995		2.756201		0.592465
        0.657500		0.585767		19.718637		458.439682		2.725581		0.595709
        0.662500		0.596160		19.716245		458.485664		2.678336		0.600867
        0.667500		0.612063		19.713917		458.531295		2.609007		0.608727
        0.672500		0.635629		19.711649		458.577048		2.512526		0.620233
        0.677500		0.669494		19.709439		458.623537		2.385677		0.636437
        0.682500		0.716733		19.707287		458.671546		2.228672		0.658401
        0.687500		0.780761		19.705192		458.722049		2.046131		0.687070
        0.692500		0.865155		19.703154		458.776226		1.846754		0.723133
        0.697500		0.973412		19.701177		458.835453		1.641581		0.766916
        0.702500		1.108652		19.699266		458.901286		1.441537		0.818322
        0.707500		1.273296		19.697429		458.975394		1.255342		0.876830
        0.712500		1.468742		19.695673		459.059440		1.088492		0.941554
        0.717500		1.695096		19.694006		459.154693		0.943336		1.011318
        0.722500		1.950972		19.692516		459.257399		0.819798		1.084763
        0.727500		2.233434		19.691048		459.365259		0.716287		1.160412
        0.732500		2.538021		19.689257		459.467368		0.630466		1.236760
        0.737500		2.858873		19.686435		459.529606		0.559784		1.312332
        0.742500		3.188884		19.681031		459.471999		0.501790		1.385714
        0.747500		3.519768		19.669897		459.124015		0.454274		1.455560
        0.752500		3.841853		19.647022		458.147450		0.415304		1.520549
        0.757500		4.143368		19.601432		455.909968		0.383202		1.579287
        0.762500		4.408921		19.513739		451.287378		0.356470		1.630107
        0.767500		4.616863		19.350423		442.373206		0.333690		1.670727
        0.772500		4.735423		19.054212		426.099677		0.313368		1.697660
        0.777500		4.718385		18.527607		397.881037		0.293672		1.705200
        0.782500		4.503822		17.604653		351.710120		0.271960		1.683688
        0.787500		4.025898		16.005269		281.886078		0.243844		1.616566
        0.792500		3.259816		13.285546		188.644930		0.201537		1.476010
        0.797500		2.314351		8.955627		88.933479		0.133825		1.220995
        0.802500		1.495441		3.593472		20.252558		0.047164		0.825268
        0.807500		1.095601		0.445978		1.046394		0.003326		0.385681
        0.812500		1.008027		0.008619		0.014131		0.000049		0.061521
        0.817500		1.000103		0.000014		0.010002		0.000035		0.000119
        0.822500		1.000000		0.000000		0.010000		0.000035		0.000000
        0.827500		1.000000		0.000000		0.010000		0.000035		0.000000
        0.832500		1.000000		0.000000		0.010000		0.000035		0.000000
        0.837500		1.000000		0.000000		0.010000		0.000035		0.000000
        0.842500		1.000000		0.000000		0.010000		0.000035		0.000000
        0.847500		1.000000		0.000000		0.010000		0.000035		0.000000
        0.852500		1.000000		0.000000		0.010000		0.000035		0.000000
        0.857500		1.000000		0.000000		0.010000		0.000035		0.000000
        0.862500		1.000000		0.000000		0.010000		0.000035		0.000000
        0.867500		1.000000		0.000000		0.010000		0.000035		0.000000
        0.872500		1.000000		0.000000		0.010000		0.000035		0.000000
        0.877500		1.000000		0.000000		0.010000		0.000035		0.000000
        0.882500		1.000000		0.000000		0.010000		0.000035		0.000000
        0.887500		1.000000		0.000000		0.010000		0.000035		0.000000
        0.892500		1.000000		0.000000		0.010000		0.000035		0.000000
        0.897500		1.000000		0.000000		0.010000		0.000035		0.000000
        0.902500		1.000000		0.000000		0.010000		0.000035		0.000000
        0.907500		1.000000		0.000000		0.010000		0.000035		0.000000
        0.912500		1.000000		0.000000		0.010000		0.000035		0.000000
        0.917500		1.000000		0.000000		0.010000		0.000035		0.000000
        0.922500		1.000000		0.000000		0.010000		0.000035		0.000000
        0.927500		1.000000		0.000000		0.010000		0.000035		0.000000
        0.932500		1.000000		0.000000		0.010000		0.000035		0.000000
        0.937500		1.000000		0.000000		0.010000		0.000035		0.000000
        0.942500		1.000000		0.000000		0.010000		0.000035		0.000000
        0.947500		1.000000		0.000000		0.010000		0.000035		0.000000
        0.952500		1.000000		0.000000		0.010000		0.000035		0.000000
        0.957500		1.000000		0.000000		0.010000		0.000035		0.000000
        0.962500		1.000000		0.000000		0.010000		0.000035		0.000000
        0.967500		1.000000		0.000000		0.010000		0.000035		0.000000
        0.972500		1.000000		0.000000		0.010000		0.000035		0.000000
        0.977500		1.000000		0.000000		0.010000		0.000035		0.000000
        0.982500		1.000000		0.000000		0.010000		0.000035		0.000000
        0.987500		1.000000		0.000000		0.010000		0.000035		0.000000
        0.992500		1.000000		0.000000		0.010000		0.000035		0.000000
        0.997500		1.000000		0.000000		0.010000		0.000035		0.000000
