Variables = X,Ro,U,P,T,M
Zone i = 200
        0.002500		0.999997		0.000116		999.995644		3.482583		0.000003
        0.007500		0.999990		0.000368		999.986215		3.482573		0.000010
        0.012500		0.999979		0.000797		999.970180		3.482557		0.000021
        0.017500		0.999951		0.001835		999.931355		3.482519		0.000049
        0.022500		0.999892		0.004049		999.848516		3.482436		0.000108
        0.027500		0.999765		0.008796		999.670918		3.482260		0.000235
        0.032500		0.999502		0.018654		999.302260		3.481893		0.000499
        0.037500		0.998968		0.038643		998.555046		3.481149		0.001033
        0.042500		0.997914		0.078126		997.080666		3.479679		0.002089
        0.047500		0.995889		0.154088		994.249586		3.476854		0.004122
        0.052500		0.992158		0.294414		989.038477		3.471638		0.007881
        0.057500		0.985963		0.528327		980.404764		3.462953		0.014160
        0.062500		0.977533		0.848585		968.687470		3.451075		0.022783
        0.067500		0.968131		1.208318		955.666464		3.437750		0.032504
        0.072500		0.958690		1.572352		942.641972		3.424289		0.042379
        0.077500		0.949481		1.930255		929.985598		3.411081		0.052126
        0.082500		0.940496		2.282125		917.684972		3.398120		0.061746
        0.087500		0.931679		2.630038		905.660128		3.385330		0.071293
        0.092500		0.922985		2.975665		893.848299		3.372648		0.080814
        0.097500		0.914388		3.320022		882.211423		3.360036		0.090335
        0.102500		0.905873		3.663670		870.728185		3.347474		0.099872
        0.107500		0.897431		4.006911		859.386668		3.334951		0.109434
        0.112500		0.889058		4.349909		848.179891		3.322459		0.119025
        0.117500		0.880752		4.692756		837.103441		3.309997		0.128647
        0.122500		0.872510		5.035506		826.154272		3.297562		0.138304
        0.127500		0.864331		5.378192		815.330097		3.285152		0.147994
        0.132500		0.856214		5.720833		804.629063		3.272768		0.157721
        0.137500		0.848160		6.063443		794.049577		3.260408		0.167483
        0.142500		0.840166		6.406030		783.590204		3.248072		0.177281
        0.147500		0.832234		6.748602		773.249604		3.235761		0.187117
        0.152500		0.824361		7.091163		763.026497		3.223473		0.196989
        0.157500		0.816549		7.433717		752.919636		3.211209		0.206899
        0.162500		0.808795		7.776269		742.927795		3.198968		0.216847
        0.167500		0.801101		8.118822		733.049757		3.186751		0.226833
        0.172500		0.793465		8.461383		723.284307		3.174557		0.236857
        0.177500		0.785887		8.803955		713.630231		3.162386		0.246921
        0.182500		0.778367		9.146544		704.086310		3.150237		0.257023
        0.187500		0.770904		9.489158		694.651320		3.138112		0.267166
        0.192500		0.763498		9.831804		685.324033		3.126008		0.277348
        0.197500		0.756148		10.174490		676.103212		3.113927		0.287571
        0.202500		0.748853		10.517225		666.987613		3.101867		0.297836
        0.207500		0.741613		10.860021		657.975986		3.089829		0.308142
        0.212500		0.734429		11.202887		649.067074		3.077812		0.318490
        0.217500		0.727298		11.545837		640.259609		3.065815		0.328881
        0.222500		0.720220		11.888883		631.552320		3.053838		0.339317
        0.227500		0.713196		12.232042		622.943925		3.041881		0.349796
        0.232500		0.706224		12.575328		614.433137		3.029943		0.360321
        0.237500		0.699303		12.918760		606.018659		3.018023		0.370891
        0.242500		0.692434		13.262356		597.699188		3.006121		0.381509
        0.247500		0.685615		13.606136		589.473407		2.994237		0.392174
        0.252500		0.678845		13.950122		581.339988		2.982369		0.402888
        0.257500		0.672125		14.294340		573.297582		2.970516		0.413652
        0.262500		0.665453		14.638814		565.344815		2.958678		0.424467
        0.267500		0.658829		14.983576		557.480273		2.946855		0.435335
        0.272500		0.652252		15.328658		549.702503		2.935044		0.446256
        0.277500		0.645720		15.674098		542.010015		2.923244		0.457232
        0.282500		0.639233		16.019932		534.401334		2.911455		0.468266
        0.287500		0.632791		16.366193		526.875160		2.899675		0.479358
        0.292500		0.626393		16.712888		519.430762		2.887905		0.490509
        0.297500		0.620040		17.059951		512.068898		2.876145		0.501718
        0.302500		0.613736		17.407153		504.793741		2.864406		0.512976
        0.307500		0.607491		17.753895		497.616735		2.852705		0.524267
        0.312500		0.601330		18.098843		490.563679		2.841089		0.535544
        0.317500		0.595297		18.439296		483.686584		2.829647		0.546720
        0.322500		0.589479		18.770261		477.079715		2.818544		0.557628
        0.327500		0.584013		19.083564		470.897127		2.808054		0.567994
        0.332500		0.579095		19.367630		465.353546		2.798564		0.577425
        0.337500		0.574925		19.608139		460.667447		2.790477		0.585442
        0.342500		0.571769		19.799345		457.131802		2.784344		0.591802
        0.347500		0.569426		19.921471		454.505237		2.779735		0.595946
        0.352500		0.568198		20.006838		453.141950		2.777388		0.598752
        0.357500		0.567597		20.051598		452.462640		2.776159		0.600225
        0.362500		0.567134		20.056182		451.944554		2.775248		0.600460
        0.367500		0.567118		20.061994		451.930394		2.775239		0.600635
        0.372500		0.567233		20.058628		452.060842		2.775473		0.600509
        0.377500		0.567689		20.037209		452.565405		2.776342		0.599774
        0.382500		0.568184		20.011584		453.112567		2.777278		0.598906
        0.387500		0.568451		19.989702		453.411459		2.777803		0.598195
        0.392500		0.568665		19.971874		453.651824		2.778228		0.597615
        0.397500		0.568939		19.955451		453.957594		2.778762		0.597067
        0.402500		0.569327		19.936345		454.388838		2.779508		0.596415
        0.407500		0.569817		19.912241		454.935258		2.780457		0.595592
        0.412500		0.570315		19.884750		455.491586		2.781428		0.594666
        0.417500		0.570738		19.856621		455.964761		2.782254		0.593737
        0.422500		0.571091		19.830890		456.357955		2.782928		0.592895
        0.427500		0.571421		19.810328		456.722511		2.783546		0.592215
        0.432500		0.571742		19.795448		457.079444		2.784158		0.591705
        0.437500		0.572023		19.783806		457.395763		2.784713		0.591298
        0.442500		0.572233		19.772225		457.631632		2.785129		0.590908
        0.447500		0.572375		19.759920		457.790262		2.785404		0.590511
        0.452500		0.572495		19.748703		457.923497		2.785630		0.590152
        0.457500		0.572638		19.740202		458.080540		2.785889		0.589871
        0.462500		0.572809		19.734227		458.265968		2.786186		0.589661
        0.467500		0.572974		19.728728		458.445480		2.786474		0.589466
        0.472500		0.573099		19.721792		458.586019		2.786717		0.589233
        0.477500		0.573181		19.713335		458.682811		2.786909		0.588960
        0.482500		0.573251		19.705173		458.767872		2.787085		0.588697
        0.487500		0.573347		19.699049		458.876676		2.787281		0.588494
        0.492500		0.573475		19.695216		459.012874		2.787483		0.588358
        0.497500		0.573602		19.691939		459.143928		2.787663		0.588241
        0.502500		0.573692		19.687391		459.240374		2.787809		0.588090
        0.507500		0.573743		19.681346		459.297788		2.787909		0.587899
        0.512500		0.573786		19.675393		459.346739		2.787999		0.587711
        0.517500		0.573851		19.671012		459.419557		2.788127		0.587567
        0.522500		0.573942		19.668585		459.521933		2.788305		0.587476
        0.527500		0.574032		19.666643		459.624259		2.788488		0.587398
        0.532500		0.574100		19.663524		459.699023		2.788610		0.587292
        0.537500		0.574142		19.658791		459.736860		2.788635		0.587148
        0.542500		0.574181		19.653930		459.764671		2.788616		0.587005
        0.547500		0.574238		19.650343		459.813704		2.788639		0.586896
        0.552500		0.574305		19.648725		459.896038		2.788809		0.586830
        0.557500		0.574361		19.647789		459.983119		2.789069		0.586774
        0.562500		0.574396		19.645886		460.047648		2.789290		0.586694
        0.567500		0.574404		19.642083		460.071868		2.789397		0.586569
        0.572500		0.574407		19.637856		460.079450		2.789426		0.586440
        0.577500		0.574442		19.634636		460.103391		2.789401		0.586347
        0.582500		0.574534		19.633619		460.168522		2.789350		0.586322
        0.587500		0.574634		19.633759		460.247578		2.789346		0.586326
        0.592500		0.574695		19.633074		460.308639		2.789420		0.586298
        0.597500		0.574705		19.630074		460.324492		2.789464		0.586204
        0.602500		0.574689		19.626268		460.316277		2.789496		0.586087
        0.607500		0.574683		19.623335		460.322612		2.789560		0.585992
        0.612500		0.574714		19.622503		460.370286		2.789700		0.585953
        0.617500		0.574770		19.623005		460.436633		2.789830		0.585954
        0.622500		0.574820		19.622969		460.489312		2.789906		0.585945
        0.627500		0.574841		19.621066		460.507701		2.789917		0.585887
        0.632500		0.574837		19.618071		460.498717		2.789882		0.585801
        0.637500		0.574837		19.615606		460.495645		2.789864		0.585730
        0.642500		0.574859		19.614580		460.522677		2.789920		0.585693
        0.647500		0.574893		19.614947		460.571741		2.790053		0.585690
        0.652500		0.574919		19.615247		460.615430		2.790192		0.585684
        0.657500		0.574931		19.614278		460.637198		2.790263		0.585648
        0.662500		0.574934		19.612174		460.633301		2.790227		0.585589
        0.667500		0.574961		19.610111		460.626149		2.790052		0.585546
        0.672500		0.575096		19.608968		460.638294		2.789472		0.585573
        0.677500		0.575472		19.609041		460.671006		2.787843		0.585746
        0.682500		0.576373		19.609444		460.706533		2.783703		0.586193
        0.687500		0.578440		19.609099		460.728395		2.773889		0.587219
        0.692500		0.583057		19.607752		460.729934		2.751929		0.589517
        0.697500		0.593040		19.606146		460.723452		2.705566		0.594498
        0.702500		0.613759		19.605055		460.727333		2.614256		0.604757
        0.707500		0.654872		19.604891		460.750007		2.450254		0.624663
        0.712500		0.732765		19.605155		460.779854		2.189934		0.660757
        0.717500		0.873426		19.604935		460.802224		1.837345		0.721368
        0.722500		1.114778		19.603943		460.807027		1.439570		0.814918
        0.727500		1.506571		19.603004		460.813811		1.065216		0.947307
        0.732500		2.103949		19.602723		460.844869		0.762819		1.119419
        0.737500		2.943922		19.602630		460.890900		0.545223		1.324080
        0.742500		3.960646		19.602510		460.943167		0.405306		1.535702
        0.747500		4.851210		19.602639		461.017325		0.330955		1.699483
        0.752500		5.373907		19.603038		461.104902		0.298821		1.788564
        0.757500		5.634050		19.602511		461.123420		0.285035		1.831258
        0.762500		5.762944		19.599361		460.998484		0.278585		1.852040
        0.767500		5.819222		19.584660		460.149366		0.275382		1.861380
        0.772500		5.827661		19.517378		456.058159		0.272539		1.864638
        0.777500		5.744952		19.218184		437.998531		0.265514		1.860181
        0.782500		5.164425		17.927639		365.887315		0.246733		1.800099
        0.787500		3.195275		12.815836		168.247681		0.183376		1.492665
        0.792500		1.300503		2.348385		11.603977		0.031074		0.664443
        0.797500		1.019269		0.045591		0.058605		0.000200		0.160690
        0.802500		1.000404		0.000081		0.010010		0.000035		0.000681
        0.807500		1.000000		0.000000		0.010000		0.000035		0.000000
        0.812500		1.000000		0.000000		0.010000		0.000035		0.000000
        0.817500		1.000000		0.000000		0.010000		0.000035		0.000000
        0.822500		1.000000		0.000000		0.010000		0.000035		0.000000
        0.827500		1.000000		0.000000		0.010000		0.000035		0.000000
        0.832500		1.000000		0.000000		0.010000		0.000035		0.000000
        0.837500		1.000000		0.000000		0.010000		0.000035		0.000000
        0.842500		1.000000		0.000000		0.010000		0.000035		0.000000
        0.847500		1.000000		0.000000		0.010000		0.000035		0.000000
        0.852500		1.000000		0.000000		0.010000		0.000035		0.000000
        0.857500		1.000000		0.000000		0.010000		0.000035		0.000000
        0.862500		1.000000		0.000000		0.010000		0.000035		0.000000
        0.867500		1.000000		0.000000		0.010000		0.000035		0.000000
        0.872500		1.000000		0.000000		0.010000		0.000035		0.000000
        0.877500		1.000000		0.000000		0.010000		0.000035		0.000000
        0.882500		1.000000		0.000000		0.010000		0.000035		0.000000
        0.887500		1.000000		0.000000		0.010000		0.000035		0.000000
        0.892500		1.000000		0.000000		0.010000		0.000035		0.000000
        0.897500		1.000000		0.000000		0.010000		0.000035		0.000000
        0.902500		1.000000		0.000000		0.010000		0.000035		0.000000
        0.907500		1.000000		0.000000		0.010000		0.000035		0.000000
        0.912500		1.000000		0.000000		0.010000		0.000035		0.000000
        0.917500		1.000000		0.000000		0.010000		0.000035		0.000000
        0.922500		1.000000		0.000000		0.010000		0.000035		0.000000
        0.927500		1.000000		0.000000		0.010000		0.000035		0.000000
        0.932500		1.000000		0.000000		0.010000		0.000035		0.000000
        0.937500		1.000000		0.000000		0.010000		0.000035		0.000000
        0.942500		1.000000		0.000000		0.010000		0.000035		0.000000
        0.947500		1.000000		0.000000		0.010000		0.000035		0.000000
        0.952500		1.000000		0.000000		0.010000		0.000035		0.000000
        0.957500		1.000000		0.000000		0.010000		0.000035		0.000000
        0.962500		1.000000		0.000000		0.010000		0.000035		0.000000
        0.967500		1.000000		0.000000		0.010000		0.000035		0.000000
        0.972500		1.000000		0.000000		0.010000		0.000035		0.000000
        0.977500		1.000000		0.000000		0.010000		0.000035		0.000000
        0.982500		1.000000		0.000000		0.010000		0.000035		0.000000
        0.987500		1.000000		0.000000		0.010000		0.000035		0.000000
        0.992500		1.000000		0.000000		0.010000		0.000035		0.000000
        0.997500		1.000000		0.000000		0.010000		0.000035		0.000000
