Variables = X,Ro,U,P,T,M
Zone i = 200
        0.002500		0.985593		0.541767		979.899070		3.462467		0.014521
        0.007500		0.983258		0.630154		976.653360		3.459194		0.016898
        0.012500		0.980681		0.727892		973.074754		3.455577		0.019530
        0.017500		0.977857		0.835201		969.158408		3.451609		0.022422
        0.022500		0.974784		0.952227		964.902700		3.447285		0.025579
        0.027500		0.971463		1.079035		960.309148		3.442603		0.029005
        0.032500		0.967895		1.215620		955.382233		3.437566		0.032701
        0.037500		0.964085		1.361909		950.129158		3.432175		0.036665
        0.042500		0.960038		1.517768		944.559554		3.426438		0.040895
        0.047500		0.955762		1.683009		938.685145		3.420362		0.045388
        0.052500		0.951266		1.857398		932.519408		3.413957		0.050138
        0.057500		0.946558		2.040661		926.077218		3.407233		0.055139
        0.062500		0.941650		2.232495		919.374515		3.400204		0.060384
        0.067500		0.936552		2.432575		912.427985		3.392881		0.065867
        0.072500		0.931276		2.640556		905.254768		3.385280		0.071579
        0.077500		0.925833		2.856085		897.872203		3.377412		0.077511
        0.082500		0.920234		3.078803		890.297603		3.369293		0.083656
        0.087500		0.914492		3.308350		882.548066		3.360937		0.090005
        0.092500		0.908618		3.544371		874.640319		3.352357		0.096550
        0.097500		0.902622		3.786514		866.590592		3.343567		0.103281
        0.102500		0.896516		4.034438		858.414527		3.334580		0.110192
        0.107500		0.890309		4.287813		850.127100		3.325410		0.117274
        0.112500		0.884011		4.546321		841.742582		3.316068		0.124519
        0.117500		0.877633		4.809655		833.274502		3.306566		0.131921
        0.122500		0.871182		5.077524		824.735637		3.296915		0.139471
        0.127500		0.864668		5.349649		816.138013		3.287126		0.147165
        0.132500		0.858097		5.625768		807.492912		3.277210		0.154995
        0.137500		0.851478		5.905629		798.810895		3.267175		0.162955
        0.142500		0.844818		6.188996		790.101820		3.257031		0.171039
        0.147500		0.838123		6.475645		781.374878		3.246786		0.179243
        0.152500		0.831399		6.765364		772.638623		3.236449		0.187562
        0.157500		0.824653		7.057953		763.901006		3.226027		0.195989
        0.162500		0.817889		7.353223		755.169411		3.215527		0.204521
        0.167500		0.811112		7.650996		746.450693		3.204957		0.213154
        0.172500		0.804328		7.951101		737.751216		3.194321		0.221883
        0.177500		0.797541		8.253378		729.076884		3.183627		0.230705
        0.182500		0.790755		8.557673		720.433182		3.172881		0.239616
        0.187500		0.783974		8.863841		711.825209		3.162087		0.248612
        0.192500		0.777201		9.171741		703.257712		3.151251		0.257690
        0.197500		0.770441		9.481239		694.735120		3.140378		0.266846
        0.202500		0.763696		9.792203		686.261574		3.129473		0.276078
        0.207500		0.756969		10.104508		677.840964		3.118541		0.285382
        0.212500		0.750265		10.418028		669.476954		3.107586		0.294755
        0.217500		0.743584		10.732641		661.173020		3.096612		0.304194
        0.222500		0.736932		11.048224		652.932476		3.085624		0.313695
        0.227500		0.730309		11.364653		644.758508		3.074627		0.323256
        0.232500		0.723719		11.681805		636.654209		3.063625		0.332873
        0.237500		0.717165		11.999551		628.622610		3.052622		0.342543
        0.242500		0.710649		12.317757		620.666717		3.041623		0.352262
        0.247500		0.704174		12.636284		612.789553		3.030634		0.362026
        0.252500		0.697743		12.954984		604.994198		3.019659		0.371830
        0.257500		0.691359		13.273698		597.283835		3.008703		0.381671
        0.262500		0.685025		13.592252		589.661810		2.997773		0.391543
        0.267500		0.678744		13.910457		582.131686		2.986875		0.401439
        0.272500		0.672521		14.228104		574.697314		2.976016		0.411355
        0.277500		0.666359		14.544957		567.362917		2.965204		0.421281
        0.282500		0.660263		14.860750		560.133182		2.954448		0.431211
        0.287500		0.654238		15.175184		553.013369		2.943758		0.441133
        0.292500		0.648289		15.487911		546.009444		2.933145		0.451038
        0.297500		0.642423		15.798534		539.128228		2.922623		0.460911
        0.302500		0.636648		16.106591		532.377579		2.912206		0.470738
        0.307500		0.630973		16.411546		525.766593		2.901913		0.480501
        0.312500		0.625406		16.712770		519.305854		2.891764		0.490178
        0.317500		0.619961		17.009532		513.007693		2.881783		0.499745
        0.322500		0.614651		17.300971		506.886500		2.871998		0.509173
        0.327500		0.609491		17.586084		500.959032		2.862442		0.518427
        0.332500		0.604501		17.863704		495.244738		2.853152		0.527468
        0.337500		0.599701		18.132477		489.766031		2.844174		0.536248
        0.342500		0.595115		18.390853		484.548471		2.835557		0.544715
        0.347500		0.590771		18.637084		479.620757		2.827359		0.552808
        0.352500		0.586698		18.869234		475.014400		2.819643		0.560459
        0.357500		0.582929		19.085224		470.762931		2.812475		0.567597
        0.362500		0.579495		19.282913		466.900439		2.805926		0.574145
        0.367500		0.576429		19.460225		463.459321		2.800063		0.580031
        0.372500		0.573756		19.615327		460.467157		2.794945		0.585189
        0.377500		0.571496		19.746850		457.942894		2.790616		0.589569
        0.382500		0.569656		19.854126		455.892793		2.787098		0.593146
        0.387500		0.568228		19.937389		454.306957		2.784381		0.595924
        0.392500		0.567189		19.997894		453.157464		2.782423		0.597943
        0.397500		0.566499		20.037880		452.399023		2.781149		0.599276
        0.402500		0.566106		20.060381		451.972524		2.780459		0.600023
        0.407500		0.565949		20.068891		451.811005		2.780235		0.600302
        0.412500		0.565968		20.066978		451.846725		2.780360		0.600231
        0.417500		0.566108		20.057920		452.017670		2.780725		0.599921
        0.422500		0.566322		20.044454		452.272106		2.781237		0.599463
        0.427500		0.566576		20.028670		452.570579		2.781829		0.598927
        0.432500		0.566843		20.012023		452.885570		2.782452		0.598362
        0.437500		0.567109		19.995435		453.199617		2.783075		0.597799
        0.442500		0.567365		19.979429		453.502784		2.783680		0.597256
        0.447500		0.567606		19.964260		453.790227		2.784261		0.596740
        0.452500		0.567832		19.950016		454.060227		2.784812		0.596255
        0.457500		0.568041		19.936696		454.312800		2.785336		0.595801
        0.462500		0.568234		19.924252		454.548818		2.785833		0.595376
        0.467500		0.568414		19.912619		454.769508		2.786306		0.594978
        0.472500		0.568580		19.901726		454.976175		2.786757		0.594604
        0.477500		0.568734		19.891508		455.170083		2.787189		0.594253
        0.482500		0.568877		19.881901		455.352396		2.787604		0.593922
        0.487500		0.569010		19.872851		455.524165		2.788004		0.593609
        0.492500		0.569134		19.864306		455.686328		2.788390		0.593313
        0.497500		0.569249		19.856224		455.839719		2.788765		0.593031
        0.502500		0.569356		19.848565		455.985078		2.789130		0.592764
        0.507500		0.569455		19.841294		456.123062		2.789487		0.592509
        0.512500		0.569548		19.834380		456.254259		2.789836		0.592265
        0.517500		0.569634		19.827795		456.379190		2.790179		0.592032
        0.522500		0.569713		19.821515		456.498323		2.790517		0.591809
        0.527500		0.569787		19.815517		456.612078		2.790851		0.591594
        0.532500		0.569855		19.809782		456.720834		2.791183		0.591388
        0.537500		0.569918		19.804291		456.824929		2.791513		0.591189
        0.542500		0.569975		19.799028		456.924673		2.791842		0.590997
        0.547500		0.570027		19.793979		457.020346		2.792172		0.590812
        0.552500		0.570074		19.789130		457.112203		2.792503		0.590632
        0.557500		0.570116		19.784468		457.200475		2.792837		0.590457
        0.562500		0.570153		19.779982		457.285377		2.793174		0.590288
        0.567500		0.570185		19.775663		457.367103		2.793516		0.590123
        0.572500		0.570212		19.771499		457.445834		2.793864		0.589962
        0.577500		0.570234		19.767484		457.521735		2.794220		0.589805
        0.582500		0.570251		19.763608		457.594957		2.794584		0.589650
        0.587500		0.570263		19.759865		457.665641		2.794959		0.589499
        0.592500		0.570269		19.756247		457.733917		2.795345		0.589351
        0.597500		0.570270		19.752748		457.799905		2.795741		0.589204
        0.602500		0.570268		19.749363		457.863718		2.796144		0.589061
        0.607500		0.570264		19.746085		457.925459		2.796541		0.588921
        0.612500		0.570264		19.742909		457.985226		2.796902		0.588789
        0.617500		0.570283		19.739831		458.043113		2.797162		0.588670
        0.622500		0.570347		19.736846		458.099208		2.797192		0.588577
        0.627500		0.570507		19.733950		458.153597		2.796742		0.588538
        0.632500		0.570853		19.731138		458.206365		2.795365		0.588599
        0.637500		0.571545		19.728408		458.257603		2.792293		0.588842
        0.642500		0.572843		19.725754		458.307412		2.786272		0.589398
        0.647500		0.575157		19.723175		458.355913		2.775356		0.590479
        0.652500		0.579109		19.720666		458.403258		2.756699		0.592398
        0.657500		0.585603		19.718223		458.449647		2.726405		0.595607
        0.662500		0.595896		19.715845		458.495346		2.679578		0.600716
        0.667500		0.611668		19.713528		458.540709		2.610742		0.608512
        0.672500		0.635069		19.711270		458.586206		2.514792		0.619941
        0.677500		0.668731		19.709069		458.632449		2.388445		0.636056
        0.682500		0.715730		19.706924		458.680223		2.231839		0.657922
        0.687500		0.779483		19.704835		458.730506		2.049525		0.686488
        0.692500		0.863572		19.702803		458.784480		1.850172		0.722452
        0.697500		0.971505		19.700831		458.843525		1.644832		0.766145
        0.702500		1.106414		19.698924		458.909186		1.444478		0.817474
        0.707500		1.270733		19.697092		458.983112		1.257895		0.875925
        0.712500		1.465877		19.695342		459.066946		1.090637		0.940612
        0.717500		1.691965		19.693718		459.160671		0.945094		1.010362
        0.722500		1.947625		19.692280		459.261192		0.821214		1.083814
        0.727500		2.229937		19.690817		459.368386		0.717415		1.159486
        0.732500		2.534448		19.689033		459.469960		0.631358		1.235872
        0.737500		2.855299		19.686226		459.532033		0.560488		1.311494
        0.742500		3.185389		19.680852		459.475127		0.502344		1.384937
        0.747500		3.516434		19.669782		459.129677		0.454710		1.454853
        0.752500		3.838766		19.647036		458.159251		0.415649		1.519919
        0.757500		4.140629		19.601688		455.934553		0.383476		1.578743
        0.762500		4.406663		19.514436		451.336356		0.356691		1.629659
        0.767500		4.615278		19.351907		442.465852		0.333875		1.670394
        0.772500		4.734798		19.057069		426.266157		0.313532		1.697471
        0.777500		4.719134		18.532839		398.164423		0.293834		1.705210
        0.782500		4.506465		17.613966		352.161522		0.272150		1.683993
        0.787500		4.030869		16.021505		282.539138		0.244108		1.617332
        0.792500		3.266917		13.312893		189.448884		0.201956		1.477513
        0.797500		2.321907		8.996525		89.660104		0.134480		1.223583
        0.802500		1.505429		3.616710		20.675761		0.047830		0.824801
        0.807500		1.106389		0.442493		1.107132		0.003485		0.373850
        0.812500		1.010456		0.008099		0.014551		0.000050		0.057039
        0.817500		1.000112		0.000014		0.010002		0.000035		0.000122
        0.822500		1.000000		0.000000		0.010000		0.000035		0.000000
        0.827500		1.000000		0.000000		0.010000		0.000035		0.000000
        0.832500		1.000000		0.000000		0.010000		0.000035		0.000000
        0.837500		1.000000		0.000000		0.010000		0.000035		0.000000
        0.842500		1.000000		0.000000		0.010000		0.000035		0.000000
        0.847500		1.000000		0.000000		0.010000		0.000035		0.000000
        0.852500		1.000000		0.000000		0.010000		0.000035		0.000000
        0.857500		1.000000		0.000000		0.010000		0.000035		0.000000
        0.862500		1.000000		0.000000		0.010000		0.000035		0.000000
        0.867500		1.000000		0.000000		0.010000		0.000035		0.000000
        0.872500		1.000000		0.000000		0.010000		0.000035		0.000000
        0.877500		1.000000		0.000000		0.010000		0.000035		0.000000
        0.882500		1.000000		0.000000		0.010000		0.000035		0.000000
        0.887500		1.000000		0.000000		0.010000		0.000035		0.000000
        0.892500		1.000000		0.000000		0.010000		0.000035		0.000000
        0.897500		1.000000		0.000000		0.010000		0.000035		0.000000
        0.902500		1.000000		0.000000		0.010000		0.000035		0.000000
        0.907500		1.000000		0.000000		0.010000		0.000035		0.000000
        0.912500		1.000000		0.000000		0.010000		0.000035		0.000000
        0.917500		1.000000		0.000000		0.010000		0.000035		0.000000
        0.922500		1.000000		0.000000		0.010000		0.000035		0.000000
        0.927500		1.000000		0.000000		0.010000		0.000035		0.000000
        0.932500		1.000000		0.000000		0.010000		0.000035		0.000000
        0.937500		1.000000		0.000000		0.010000		0.000035		0.000000
        0.942500		1.000000		0.000000		0.010000		0.000035		0.000000
        0.947500		1.000000		0.000000		0.010000		0.000035		0.000000
        0.952500		1.000000		0.000000		0.010000		0.000035		0.000000
        0.957500		1.000000		0.000000		0.010000		0.000035		0.000000
        0.962500		1.000000		0.000000		0.010000		0.000035		0.000000
        0.967500		1.000000		0.000000		0.010000		0.000035		0.000000
        0.972500		1.000000		0.000000		0.010000		0.000035		0.000000
        0.977500		1.000000		0.000000		0.010000		0.000035		0.000000
        0.982500		1.000000		0.000000		0.010000		0.000035		0.000000
        0.987500		1.000000		0.000000		0.010000		0.000035		0.000000
        0.992500		1.000000		0.000000		0.010000		0.000035		0.000000
        0.997500		1.000000		0.000000		0.010000		0.000035		0.000000
