Variables = X,Ro,U,P,T,M
Zone i = 200
        0.002500		0.998858		0.059044		998.775759		3.482300		0.001578
        0.007500		0.998339		0.071288		998.298111		3.482445		0.001905
        0.012500		0.997727		0.088177		997.700697		3.482496		0.002357
        0.017500		0.997006		0.109852		996.979502		3.482493		0.002936
        0.022500		0.996146		0.136952		996.110672		3.482464		0.003660
        0.027500		0.995115		0.170234		995.067604		3.482421		0.004550
        0.032500		0.993884		0.210530		993.822149		3.482370		0.005627
        0.037500		0.992424		0.258724		992.345122		3.482311		0.006915
        0.042500		0.990705		0.315731		990.606868		3.482243		0.008439
        0.047500		0.988698		0.382470		988.577899		3.482164		0.010223
        0.052500		0.986376		0.459850		986.229604		3.482069		0.012291
        0.057500		0.983714		0.548737		983.534978		3.481953		0.014667
        0.062500		0.980688		0.649936		980.469363		3.481810		0.017372
        0.067500		0.977279		0.764170		977.011141		3.481631		0.020426
        0.072500		0.973472		0.892059		973.142351		3.481407		0.023845
        0.077500		0.969256		1.034107		968.849198		3.481127		0.027643
        0.082500		0.964624		1.190688		964.122434		3.480777		0.031831
        0.087500		0.959576		1.362041		958.957576		3.480343		0.036414
        0.092500		0.954116		1.548268		953.354977		3.479810		0.041396
        0.097500		0.948253		1.749333		947.319739		3.479160		0.046776
        0.102500		0.942000		1.965072		940.861483		3.478377		0.052551
        0.107500		0.935376		2.195198		933.994003		3.477441		0.058713
        0.112500		0.928402		2.439315		926.734818		3.476335		0.065252
        0.117500		0.921101		2.696930		919.104652		3.475040		0.072157
        0.122500		0.913500		2.967469		911.126883		3.473540		0.079412
        0.127500		0.905627		3.250291		902.826964		3.471818		0.087002
        0.132500		0.897512		3.544705		894.231862		3.469859		0.094910
        0.137500		0.889184		3.849981		885.369517		3.467649		0.103116
        0.142500		0.880671		4.165366		876.268352		3.465177		0.111603
        0.147500		0.872003		4.490093		866.956829		3.462432		0.120352
        0.152500		0.863209		4.823393		857.463066		3.459407		0.129342
        0.157500		0.854313		5.164507		847.814521		3.456094		0.138555
        0.162500		0.845343		5.512687		838.037728		3.452491		0.147974
        0.167500		0.836322		5.867205		828.158102		3.448593		0.157579
        0.172500		0.827271		6.227358		818.199792		3.444401		0.167353
        0.177500		0.818211		6.592472		808.185580		3.439916		0.177281
        0.182500		0.809161		6.961899		798.136831		3.435141		0.187345
        0.187500		0.800138		7.335024		788.073473		3.430078		0.197532
        0.192500		0.791157		7.711262		778.014006		3.424735		0.207826
        0.197500		0.782232		8.090058		767.975539		3.419117		0.218214
        0.202500		0.773375		8.470886		757.973844		3.413232		0.228682
        0.207500		0.764599		8.853248		748.023426		3.407090		0.239220
        0.212500		0.755912		9.236671		738.137606		3.400699		0.249815
        0.217500		0.747323		9.620704		728.328602		3.394071		0.260455
        0.222500		0.738841		10.004920		718.607629		3.387216		0.271131
        0.227500		0.730472		10.388908		708.984991		3.380146		0.281831
        0.232500		0.722222		10.772272		699.470181		3.372875		0.292546
        0.237500		0.714098		11.154630		690.071973		3.365415		0.303265
        0.242500		0.706104		11.535607		680.798526		3.357779		0.313980
        0.247500		0.698244		11.914836		671.657470		3.349983		0.324679
        0.252500		0.690523		12.291952		662.656008		3.342041		0.335353
        0.257500		0.682946		12.666591		653.801001		3.333968		0.345992
        0.262500		0.675515		13.038383		645.099057		3.325781		0.356586
        0.267500		0.668234		13.406952		636.556621		3.317496		0.367123
        0.272500		0.661108		13.771912		628.180055		3.309131		0.377593
        0.277500		0.654139		14.132860		619.975721		3.300704		0.387984
        0.282500		0.647332		14.489379		611.950059		3.292233		0.398283
        0.287500		0.640692		14.841026		604.109659		3.283739		0.408476
        0.292500		0.634221		15.187338		596.461334		3.275243		0.418550
        0.297500		0.627926		15.527819		589.012178		3.266766		0.428488
        0.302500		0.621810		15.861947		581.769626		3.258332		0.438274
        0.307500		0.615880		16.189163		574.741497		3.249964		0.447891
        0.312500		0.610141		16.508873		567.936026		3.241688		0.457318
        0.317500		0.604600		16.820447		561.361876		3.233531		0.466537
        0.322500		0.599263		17.123221		555.028131		3.225520		0.475524
        0.327500		0.594137		17.416494		548.944260		3.217683		0.484257
        0.332500		0.589231		17.699538		543.120047		3.210052		0.492712
        0.337500		0.584552		17.971599		537.565479		3.202655		0.500863
        0.342500		0.580108		18.231910		532.290589		3.195525		0.508684
        0.347500		0.575906		18.479703		527.305247		3.188691		0.516150
        0.352500		0.571955		18.714223		522.618894		3.182184		0.523234
        0.357500		0.568261		18.934750		518.240215		3.176033		0.529912
        0.362500		0.564831		19.140622		514.176766		3.170265		0.536161
        0.367500		0.561670		19.331262		510.434549		3.164904		0.541960
        0.372500		0.558782		19.506204		507.017568		3.159970		0.547291
        0.377500		0.556166		19.665123		503.927374		3.155479		0.552142
        0.382500		0.553824		19.807861		501.162644		3.151440		0.556506
        0.387500		0.551750		19.934453		498.718824		3.147857		0.560381
        0.392500		0.549940		20.045139		496.587878		3.144727		0.563773
        0.397500		0.548382		20.140376		494.758183		3.142040		0.566694
        0.402500		0.547065		20.220836		493.214597		3.139777		0.569163
        0.407500		0.545974		20.287385		491.938713		3.137915		0.571206
        0.412500		0.545090		20.341069		490.909309		3.136423		0.572853
        0.417500		0.544395		20.383067		490.102959		3.135269		0.574142
        0.422500		0.543868		20.414657		489.494778		3.134414		0.575110
        0.427500		0.543487		20.437165		489.059226		3.133821		0.575799
        0.432500		0.543231		20.451918		488.770930		3.133450		0.576248
        0.437500		0.543080		20.460202		488.605446		3.133263		0.576499
        0.442500		0.543013		20.463223		488.539906		3.133226		0.576587
        0.447500		0.543014		20.462079		488.553525		3.133306		0.576548
        0.452500		0.543068		20.457740		488.627933		3.133477		0.576410
        0.457500		0.543159		20.451043		488.747337		3.133712		0.576199
        0.462500		0.543278		20.442682		488.898535		3.133994		0.575938
        0.467500		0.543416		20.433225		489.070793		3.134306		0.575643
        0.472500		0.543564		20.423117		489.255636		3.134635		0.575328
        0.477500		0.543718		20.412699		489.446577		3.134973		0.575004
        0.482500		0.543873		20.402223		489.638814		3.135311		0.574677
        0.487500		0.544026		20.391866		489.828930		3.135646		0.574355
        0.492500		0.544175		20.381748		490.014612		3.135974		0.574040
        0.497500		0.544319		20.371946		490.194395		3.136294		0.573735
        0.502500		0.544457		20.362502		490.367448		3.136604		0.573440
        0.507500		0.544590		20.353435		490.533394		3.136904		0.573158
        0.512500		0.544716		20.344745		490.692173		3.137194		0.572886
        0.517500		0.544835		20.336426		490.843934		3.137475		0.572627
        0.522500		0.544949		20.328462		490.988950		3.137747		0.572378
        0.527500		0.545057		20.320833		491.127571		3.138011		0.572139
        0.532500		0.545160		20.313520		491.260174		3.138267		0.571909
        0.537500		0.545257		20.306502		491.387146		3.138517		0.571689
        0.542500		0.545350		20.299757		491.508863		3.138762		0.571477
        0.547500		0.545438		20.293268		491.625683		3.139000		0.571272
        0.552500		0.545522		20.287016		491.737939		3.139234		0.571075
        0.557500		0.545602		20.280984		491.845943		3.139463		0.570885
        0.562500		0.545678		20.275156		491.949987		3.139686		0.570700
        0.567500		0.545752		20.269516		492.050345		3.139903		0.570522
        0.572500		0.545824		20.264048		492.147285		3.140109		0.570349
        0.577500		0.545895		20.258735		492.241078		3.140299		0.570182
        0.582500		0.545967		20.253557		492.332020		3.140464		0.570022
        0.587500		0.546044		20.248490		492.420450		3.140584		0.569868
        0.592500		0.546131		20.243502		492.506792		3.140633		0.569723
        0.597500		0.546237		20.238550		492.591600		3.140563		0.569590
        0.602500		0.546376		20.233574		492.675625		3.140304		0.569474
        0.607500		0.546566		20.228494		492.759905		3.139746		0.569381
        0.612500		0.546840		20.223198		492.845878		3.138723		0.569325
        0.617500		0.547241		20.217535		492.935526		3.136992		0.569323
        0.622500		0.547834		20.211308		493.031553		3.134206		0.569400
        0.627500		0.548711		20.204259		493.137586		3.129871		0.569596
        0.632500		0.549998		20.196067		493.258415		3.123311		0.569962
        0.637500		0.551869		20.186343		493.400245		3.113617		0.570574
        0.642500		0.554557		20.174633		493.570961		3.099599		0.571531
        0.647500		0.558369		20.160434		493.780394		3.079744		0.572967
        0.652500		0.563707		20.143227		494.040563		3.052188		0.575056
        0.657500		0.571087		20.122526		494.365876		3.014728		0.578023
        0.662500		0.581167		20.097955		494.773259		2.964880		0.582151
        0.667500		0.594778		20.069344		495.282143		2.900011		0.587787
        0.672500		0.612963		20.036836		495.914232		2.817568		0.595359
        0.677500		0.637023		20.000996		496.692905		2.715405		0.605370
        0.682500		0.668579		19.962887		497.642019		2.592186		0.618411
        0.687500		0.709635		19.924085		498.783857		2.447819		0.635149
        0.692500		0.762651		19.886607		500.135904		2.283832		0.656320
        0.697500		0.830607		19.852725		501.706404		2.103566		0.682699
        0.702500		0.917039		19.824718		503.488962		1.912072		0.715059
        0.707500		1.026006		19.804670		505.455075		1.715673		0.754115
        0.712500		1.161943		19.794405		507.543605		1.521215		0.800450
        0.717500		1.329504		19.792285		509.726501		1.335210		0.854295
        0.722500		1.533492		19.789491		512.064268		1.162907		0.915270
        0.727500		1.755629		19.996299		506.601771		1.004930		0.994875
        0.732500		1.986986		20.349345		494.494607		0.866700		1.090192
        0.737500		2.271456		20.356023		494.644234		0.758387		1.165828
        0.742500		2.574498		20.364780		495.010200		0.669612		1.241238
        0.747500		2.891242		20.379815		495.435315		0.596767		1.315785
        0.752500		3.217084		20.399969		495.807638		0.536726		1.388801
        0.757500		3.547062		20.421042		495.880390		0.486867		1.459687
        0.762500		3.874994		20.434174		495.155591		0.445013		1.527769
        0.767500		4.191716		20.423063		492.709613		0.409356		1.592052
        0.772500		4.482034		20.359739		486.952361		0.378367		1.650831
        0.777500		4.720177		20.198269		475.347256		0.350715		1.701076
        0.782500		4.864218		19.865368		454.176064		0.325172		1.737509
        0.787500		4.851870		19.245611		418.539886		0.300421		1.751273
        0.792500		4.604502		18.155780		362.989109		0.274545		1.728206
        0.797500		4.052293		16.301045		283.542232		0.243679		1.646998
        0.802500		3.196693		13.226814		182.874068		0.199229		1.477970
        0.807500		2.196747		8.513672		80.375877		0.127423		1.189543
        0.812500		1.402740		3.064452		15.839048		0.039324		0.770749
        0.817500		1.077842		0.292482		0.689948		0.002229		0.308962
        0.822500		1.005720		0.004112		0.012338		0.000043		0.031375
        0.827500		1.000040		0.000008		0.010001		0.000035		0.000064
        0.832500		1.000000		0.000000		0.010000		0.000035		0.000000
        0.837500		1.000000		0.000000		0.010000		0.000035		0.000000
        0.842500		1.000000		0.000000		0.010000		0.000035		0.000000
        0.847500		1.000000		0.000000		0.010000		0.000035		0.000000
        0.852500		1.000000		0.000000		0.010000		0.000035		0.000000
        0.857500		1.000000		0.000000		0.010000		0.000035		0.000000
        0.862500		1.000000		0.000000		0.010000		0.000035		0.000000
        0.867500		1.000000		0.000000		0.010000		0.000035		0.000000
        0.872500		1.000000		0.000000		0.010000		0.000035		0.000000
        0.877500		1.000000		0.000000		0.010000		0.000035		0.000000
        0.882500		1.000000		0.000000		0.010000		0.000035		0.000000
        0.887500		1.000000		0.000000		0.010000		0.000035		0.000000
        0.892500		1.000000		0.000000		0.010000		0.000035		0.000000
        0.897500		1.000000		0.000000		0.010000		0.000035		0.000000
        0.902500		1.000000		0.000000		0.010000		0.000035		0.000000
        0.907500		1.000000		0.000000		0.010000		0.000035		0.000000
        0.912500		1.000000		0.000000		0.010000		0.000035		0.000000
        0.917500		1.000000		0.000000		0.010000		0.000035		0.000000
        0.922500		1.000000		0.000000		0.010000		0.000035		0.000000
        0.927500		1.000000		0.000000		0.010000		0.000035		0.000000
        0.932500		1.000000		0.000000		0.010000		0.000035		0.000000
        0.937500		1.000000		0.000000		0.010000		0.000035		0.000000
        0.942500		1.000000		0.000000		0.010000		0.000035		0.000000
        0.947500		1.000000		0.000000		0.010000		0.000035		0.000000
        0.952500		1.000000		0.000000		0.010000		0.000035		0.000000
        0.957500		1.000000		0.000000		0.010000		0.000035		0.000000
        0.962500		1.000000		0.000000		0.010000		0.000035		0.000000
        0.967500		1.000000		0.000000		0.010000		0.000035		0.000000
        0.972500		1.000000		0.000000		0.010000		0.000035		0.000000
        0.977500		1.000000		0.000000		0.010000		0.000035		0.000000
        0.982500		1.000000		0.000000		0.010000		0.000035		0.000000
        0.987500		1.000000		0.000000		0.010000		0.000035		0.000000
        0.992500		1.000000		0.000000		0.010000		0.000035		0.000000
        0.997500		1.000000		0.000000		0.010000		0.000035		0.000000
