Variables = X,Ro,U,P,T,M
Zone i = 200
        0.002500		1.000000		0.000000		1000.000000		3.482587		0.000000
        0.007500		1.000000		0.000000		1000.000000		3.482587		0.000000
        0.012500		1.000000		0.000000		1000.000000		3.482587		0.000000
        0.017500		1.000000		0.000000		999.999999		3.482587		0.000000
        0.022500		1.000000		0.000000		999.999998		3.482587		0.000000
        0.027500		1.000000		0.000000		999.999994		3.482587		0.000000
        0.032500		1.000000		0.000001		999.999984		3.482587		0.000000
        0.037500		1.000000		0.000001		999.999959		3.482587		0.000000
        0.042500		1.000000		0.000003		999.999896		3.482587		0.000000
        0.047500		1.000000		0.000008		999.999744		3.482587		0.000000
        0.052500		0.999999		0.000020		999.999378		3.482587		0.000001
        0.057500		0.999999		0.000049		999.998510		3.482587		0.000001
        0.062500		0.999996		0.000115		999.996487		3.482587		0.000003
        0.067500		0.999992		0.000267		999.991852		3.482587		0.000007
        0.072500		0.999981		0.000607		999.981421		3.482587		0.000016
        0.077500		0.999958		0.001358		999.958391		3.482588		0.000036
        0.082500		0.999908		0.002980		999.908562		3.482589		0.000080
        0.087500		0.999802		0.006408		999.803053		3.482591		0.000171
        0.092500		0.999582		0.013489		999.584774		3.482596		0.000361
        0.097500		0.999139		0.027751		999.144388		3.482608		0.000742
        0.102500		0.998267		0.055714		998.279753		3.482632		0.001489
        0.107500		0.996606		0.108953		996.631841		3.482678		0.002912
        0.112500		0.993549		0.206988		993.596231		3.482754		0.005532
        0.117500		0.988183		0.379431		988.258102		3.482853		0.010140
        0.122500		0.979488		0.659944		979.582223		3.482922		0.017637
        0.127500		0.967118		1.062243		967.175093		3.482791		0.028389
        0.132500		0.952031		1.560683		951.914690		3.482161		0.041714
        0.137500		0.935753		2.110619		935.266998		3.480780		0.056423
        0.142500		0.919365		2.678021		918.310203		3.478592		0.071614
        0.147500		0.903360		3.245760		901.561769		3.475656		0.086833
        0.152500		0.887890		3.807341		885.203984		3.472050		0.101910
        0.157500		0.872974		4.360996		869.276832		3.467836		0.116800
        0.162500		0.858585		4.906649		853.772191		3.463065		0.131505
        0.167500		0.844688		5.444692		838.669924		3.457776		0.146037
        0.172500		0.831249		5.975579		823.949279		3.452005		0.160410
        0.177500		0.818239		6.499718		809.591543		3.445782		0.174638
        0.182500		0.805631		7.017465		795.580118		3.439138		0.188731
        0.187500		0.793402		7.529132		781.900066		3.432099		0.202699
        0.192500		0.781531		8.035002		768.537699		3.424689		0.216552
        0.197500		0.769997		8.535335		755.480288		3.416931		0.230298
        0.202500		0.758783		9.030378		742.715874		3.408846		0.243944
        0.207500		0.747871		9.520365		730.233148		3.400453		0.257497
        0.212500		0.737247		10.005520		718.021357		3.391771		0.270965
        0.217500		0.726895		10.486063		706.070238		3.382817		0.284355
        0.222500		0.716801		10.962204		694.369968		3.373605		0.297672
        0.227500		0.706954		11.434154		682.911110		3.364149		0.310923
        0.232500		0.697340		11.902117		671.684570		3.354463		0.324115
        0.237500		0.687947		12.366300		660.681558		3.344559		0.337254
        0.242500		0.678766		12.826906		649.893550		3.334447		0.350346
        0.247500		0.669786		13.284143		639.312263		3.324137		0.363397
        0.252500		0.660996		13.738215		628.929660		3.313638		0.376413
        0.257500		0.652388		14.189326		618.738036		3.302957		0.389401
        0.262500		0.643952		14.637667		608.730227		3.292103		0.402367
        0.267500		0.635681		15.083391		598.900067		3.281083		0.415315
        0.272500		0.627569		15.526577		589.243233		3.269905		0.428248
        0.277500		0.619613		15.967154		579.758678		3.258583		0.441164
        0.282500		0.611815		16.404784		570.450973		3.247134		0.454054
        0.287500		0.604185		16.838671		561.333929		3.235591		0.466894
        0.292500		0.596744		17.267273		552.435929		3.224007		0.479637
        0.297500		0.589533		17.687908		543.807126		3.212466		0.492203
        0.302500		0.582618		18.096279		535.527737		3.201106		0.504459
        0.307500		0.576094		18.486059		527.714602		3.190123		0.516211
        0.312500		0.570088		18.848856		520.520219		3.179782		0.527197
        0.317500		0.564743		19.174978		514.116777		3.170393		0.537113
        0.322500		0.560188		19.455249		508.661414		3.162257		0.545664
        0.327500		0.556504		19.683525		504.250463		3.155588		0.552649
        0.332500		0.553690		19.858801		500.883096		3.150445		0.558026
        0.337500		0.551660		19.985711		498.455196		3.146711		0.561925
        0.342500		0.550264		20.073112		496.787839		3.144138		0.564613
        0.347500		0.549332		20.131582		495.674498		3.142416		0.566413
        0.352500		0.548703		20.171078		494.923492		3.141253		0.567629
        0.357500		0.548249		20.199607		494.381733		3.140409		0.568508
        0.362500		0.547879		20.223004		493.938277		3.139713		0.569230
        0.367500		0.547528		20.245287		493.516904		3.139046		0.569918
        0.372500		0.547162		20.268574		493.077139		3.138346		0.570637
        0.377500		0.546794		20.292056		492.634544		3.137642		0.571362
        0.382500		0.546472		20.312051		492.249159		3.137034		0.571980
        0.387500		0.546270		20.326477		492.005852		3.136641		0.572422
        0.392500		0.546125		20.332998		491.834727		3.136382		0.572630
        0.397500		0.546092		20.336343		491.792361		3.136305		0.572731
        0.402500		0.546084		20.337396		491.784839		3.136302		0.572761
        0.407500		0.546097		20.336516		491.801935		3.136333		0.572733
        0.412500		0.546170		20.331688		491.890035		3.136475		0.572584
        0.417500		0.546364		20.319031		492.121785		3.136840		0.572195
        0.422500		0.546689		20.298156		492.508875		3.137440		0.571552
        0.427500		0.547062		20.274642		492.952829		3.138126		0.570828
        0.432500		0.547403		20.253704		493.357656		3.138752		0.570181
        0.437500		0.547686		20.236486		493.694796		3.139274		0.569649
        0.442500		0.547920		20.221928		493.974305		3.139706		0.569200
        0.447500		0.548123		20.208848		494.216127		3.140079		0.568798
        0.452500		0.548311		20.196566		494.439216		3.140423		0.568421
        0.457500		0.548494		20.184812		494.657142		3.140757		0.568060
        0.462500		0.548678		20.173495		494.875942		3.141094		0.567711
        0.467500		0.548861		20.162527		495.094246		3.141428		0.567373
        0.472500		0.549040		20.151791		495.306169		3.141752		0.567041
        0.477500		0.549208		20.141238		495.505769		3.142056		0.566717
        0.482500		0.549364		20.131023		495.690443		3.142335		0.566404
        0.487500		0.549508		20.121513		495.861210		3.142592		0.566114
        0.492500		0.549643		20.113094		496.020080		3.142830		0.565855
        0.497500		0.549766		20.105911		496.166612		3.143050		0.565633
        0.502500		0.549877		20.099741		496.296793		3.143244		0.565442
        0.507500		0.549970		20.094154		496.406699		3.143406		0.565271
        0.512500		0.550048		20.088874		496.497994		3.143539		0.565110
        0.517500		0.550117		20.083951		496.578586		3.143655		0.564961
        0.522500		0.550184		20.079576		496.657360		3.143769		0.564828
        0.527500		0.550253		20.075800		496.738035		3.143887		0.564711
        0.532500		0.550321		20.072399		496.817209		3.144002		0.564605
        0.537500		0.550382		20.068993		496.888887		3.144105		0.564500
        0.542500		0.550436		20.065348		496.951356		3.144191		0.564390
        0.547500		0.550487		20.061552		497.009963		3.144271		0.564276
        0.552500		0.550542		20.057843		497.073095		3.144356		0.564164
        0.557500		0.550605		20.054344		497.145531		3.144455		0.564057
        0.562500		0.550674		20.050935		497.224844		3.144563		0.563951
        0.567500		0.550743		20.047335		497.303720		3.144668		0.563840
        0.572500		0.550807		20.043346		497.376130		3.144760		0.563720
        0.577500		0.550866		20.039087		497.442791		3.144842		0.563593
        0.582500		0.550927		20.034922		497.510533		3.144925		0.563468
        0.587500		0.550993		20.031136		497.585413		3.145019		0.563353
        0.592500		0.551065		20.027692		497.666435		3.145124		0.563247
        0.597500		0.551135		20.024248		497.746363		3.145226		0.563141
        0.602500		0.551200		20.020466		497.818366		3.145311		0.563027
        0.607500		0.551259		20.016356		497.882111		3.145379		0.562906
        0.612500		0.551317		20.012292		497.944430		3.145439		0.562786
        0.617500		0.551382		20.008659		498.012969		3.145504		0.562678
        0.622500		0.551453		20.005513		498.088444		3.145576		0.562583
        0.627500		0.551524		20.002504		498.163667		3.145645		0.562492
        0.632500		0.551589		19.999199		498.230652		3.145696		0.562395
        0.637500		0.551647		19.995499		498.287543		3.145727		0.562288
        0.642500		0.551702		19.991763		498.340744		3.145746		0.562181
        0.647500		0.551763		19.988454		498.399407		3.145771		0.562086
        0.652500		0.551830		19.985715		498.466421		3.145809		0.562005
        0.657500		0.551900		19.983217		498.535050		3.145843		0.561932
        0.662500		0.551970		19.980454		498.596065		3.145828		0.561856
        0.667500		0.552049		19.977204		498.645933		3.145695		0.561776
        0.672500		0.552164		19.973780		498.690782		3.145323		0.561713
        0.677500		0.552377		19.970710		498.741303		3.144427		0.561707
        0.682500		0.552806		19.968241		498.803563		3.142379		0.561820
        0.687500		0.553678		19.966098		498.874590		3.137881		0.562163
        0.692500		0.555449		19.963914		498.947847		3.128332		0.562958
        0.697500		0.559035		19.961616		499.021252		3.108725		0.564666
        0.702500		0.566209		19.959864		499.122142		3.069954		0.568170
        0.707500		0.580253		19.961036		499.283161		2.996618		0.575115
        0.712500		0.606999		19.967486		499.500285		2.865823		0.588282
        0.717500		0.656591		19.982520		499.796084		2.650939		0.612121
        0.722500		0.745809		20.007485		500.174866		2.335587		0.652952
        0.727500		0.900641		20.042801		500.664445		1.935964		0.718450
        0.732500		1.156260		20.076466		500.967837		1.508886		0.815166
        0.737500		1.548521		20.093099		500.925814		1.126570		0.944180
        0.742500		2.088801		20.149104		499.097098		0.832128		1.101660
        0.747500		2.766224		20.179531		499.623870		0.629010		1.269022
        0.752500		3.516610		20.239884		500.218554		0.495379		1.434254
        0.757500		4.270364		20.341301		500.775933		0.408395		1.587543
        0.762500		4.995794		20.487979		501.924819		0.349894		1.727500
        0.767500		5.692674		20.690091		505.111587		0.309010		1.856363
        0.772500		6.288533		20.852564		506.647460		0.280581		1.963438
        0.777500		6.648887		20.887644		503.205671		0.263572		2.029211
        0.782500		6.781473		20.792106		490.759388		0.252027		2.065676
        0.787500		6.679772		20.184413		448.533674		0.233849		2.081783
        0.792500		5.519706		17.672034		314.774506		0.198603		1.977792
        0.797500		2.487581		9.662976		88.128880		0.123379		1.372070
        0.802500		1.122814		0.686852		2.409105		0.007472		0.396301
        0.807500		1.006871		0.006103		0.014588		0.000050		0.042849
        0.812500		1.000032		0.000006		0.010001		0.000035		0.000054
        0.817500		1.000000		0.000000		0.010000		0.000035		0.000000
        0.822500		1.000000		0.000000		0.010000		0.000035		0.000000
        0.827500		1.000000		0.000000		0.010000		0.000035		0.000000
        0.832500		1.000000		0.000000		0.010000		0.000035		0.000000
        0.837500		1.000000		0.000000		0.010000		0.000035		0.000000
        0.842500		1.000000		0.000000		0.010000		0.000035		0.000000
        0.847500		1.000000		0.000000		0.010000		0.000035		0.000000
        0.852500		1.000000		0.000000		0.010000		0.000035		0.000000
        0.857500		1.000000		0.000000		0.010000		0.000035		0.000000
        0.862500		1.000000		0.000000		0.010000		0.000035		0.000000
        0.867500		1.000000		0.000000		0.010000		0.000035		0.000000
        0.872500		1.000000		0.000000		0.010000		0.000035		0.000000
        0.877500		1.000000		0.000000		0.010000		0.000035		0.000000
        0.882500		1.000000		0.000000		0.010000		0.000035		0.000000
        0.887500		1.000000		0.000000		0.010000		0.000035		0.000000
        0.892500		1.000000		0.000000		0.010000		0.000035		0.000000
        0.897500		1.000000		0.000000		0.010000		0.000035		0.000000
        0.902500		1.000000		0.000000		0.010000		0.000035		0.000000
        0.907500		1.000000		0.000000		0.010000		0.000035		0.000000
        0.912500		1.000000		0.000000		0.010000		0.000035		0.000000
        0.917500		1.000000		0.000000		0.010000		0.000035		0.000000
        0.922500		1.000000		0.000000		0.010000		0.000035		0.000000
        0.927500		1.000000		0.000000		0.010000		0.000035		0.000000
        0.932500		1.000000		0.000000		0.010000		0.000035		0.000000
        0.937500		1.000000		0.000000		0.010000		0.000035		0.000000
        0.942500		1.000000		0.000000		0.010000		0.000035		0.000000
        0.947500		1.000000		0.000000		0.010000		0.000035		0.000000
        0.952500		1.000000		0.000000		0.010000		0.000035		0.000000
        0.957500		1.000000		0.000000		0.010000		0.000035		0.000000
        0.962500		1.000000		0.000000		0.010000		0.000035		0.000000
        0.967500		1.000000		0.000000		0.010000		0.000035		0.000000
        0.972500		1.000000		0.000000		0.010000		0.000035		0.000000
        0.977500		1.000000		0.000000		0.010000		0.000035		0.000000
        0.982500		1.000000		0.000000		0.010000		0.000035		0.000000
        0.987500		1.000000		0.000000		0.010000		0.000035		0.000000
        0.992500		1.000000		0.000000		0.010000		0.000035		0.000000
        0.997500		1.000000		0.000000		0.010000		0.000035		0.000000
