Variables = X,Ro,U,P,T,M
Zone i = 200
        0.002500		1.200000		0.000000		100000.000000		290.215589		0.000000
        0.007500		1.200000		0.000000		100000.000000		290.215589		0.000000
        0.012500		1.200000		0.000000		100000.000000		290.215589		0.000000
        0.017500		1.200000		0.000000		100000.000000		290.215589		0.000000
        0.022500		1.200000		0.000000		100000.000000		290.215589		0.000000
        0.027500		1.200000		0.000000		100000.000000		290.215589		0.000000
        0.032500		1.200000		0.000000		100000.000000		290.215589		0.000000
        0.037500		1.200000		0.000000		100000.000000		290.215589		0.000000
        0.042500		1.200000		0.000000		100000.000000		290.215589		0.000000
        0.047500		1.200000		0.000000		100000.000000		290.215589		0.000000
        0.052500		1.200000		0.000000		100000.000000		290.215589		0.000000
        0.057500		1.200000		0.000000		100000.000000		290.215589		0.000000
        0.062500		1.200000		0.000000		100000.000000		290.215589		0.000000
        0.067500		1.200000		0.000000		100000.000000		290.215589		0.000000
        0.072500		1.200000		0.000000		100000.000000		290.215589		0.000000
        0.077500		1.200000		0.000000		100000.000000		290.215589		0.000000
        0.082500		1.200000		0.000000		100000.000000		290.215589		0.000000
        0.087500		1.200000		0.000000		100000.000000		290.215589		0.000000
        0.092500		1.200000		0.000000		100000.000000		290.215589		0.000000
        0.097500		1.200000		0.000000		100000.000000		290.215589		0.000000
        0.102500		1.200000		0.000000		100000.000000		290.215589		0.000000
        0.107500		1.200000		0.000000		100000.000000		290.215589		0.000000
        0.112500		1.200000		0.000000		100000.000000		290.215589		0.000000
        0.117500		1.200000		0.000000		100000.000000		290.215589		0.000000
        0.122500		1.200000		0.000000		100000.000000		290.215589		0.000000
        0.127500		1.200000		0.000000		100000.000000		290.215589		0.000000
        0.132500		1.200000		0.000000		100000.000000		290.215589		0.000000
        0.137500		1.200000		0.000000		100000.000000		290.215589		0.000000
        0.142500		1.200000		0.000000		100000.000000		290.215589		0.000000
        0.147500		1.200000		0.000000		100000.000000		290.215589		0.000000
        0.152500		1.200000		0.000000		100000.000000		290.215589		0.000000
        0.157500		1.200000		0.000000		100000.000000		290.215589		0.000000
        0.162500		1.200000		0.000000		100000.000000		290.215589		0.000000
        0.167500		1.200000		0.000000		100000.000000		290.215589		0.000000
        0.172500		1.200000		0.000000		100000.000000		290.215589		0.000000
        0.177500		1.200000		0.000000		100000.000000		290.215589		0.000000
        0.182500		1.200000		0.000000		100000.000000		290.215589		0.000000
        0.187500		1.200000		0.000000		100000.000000		290.215589		0.000000
        0.192500		1.200000		0.000000		100000.000000		290.215589		0.000000
        0.197500		1.200000		0.000000		100000.000000		290.215589		0.000000
        0.202500		1.200000		0.000000		100000.000000		290.215589		0.000000
        0.207500		1.200000		0.000000		100000.000000		290.215589		0.000000
        0.212500		1.200000		0.000000		100000.000000		290.215589		0.000000
        0.217500		1.200000		0.000000		99999.999999		290.215589		0.000000
        0.222500		1.200000		0.000000		99999.999998		290.215589		0.000000
        0.227500		1.200000		0.000000		99999.999992		290.215589		0.000000
        0.232500		1.200000		0.000000		99999.999974		290.215589		0.000000
        0.237500		1.200000		0.000000		99999.999912		290.215589		0.000000
        0.242500		1.200000		0.000001		99999.999711		290.215588		0.000000
        0.247500		1.200000		0.000002		99999.999069		290.215588		0.000000
        0.252500		1.200000		0.000007		99999.997056		290.215586		0.000000
        0.257500		1.200000		0.000022		99999.990895		290.215581		0.000000
        0.262500		1.200000		0.000067		99999.972478		290.215566		0.000000
        0.267500		1.199999		0.000198		99999.918753		290.215521		0.000001
        0.272500		1.199998		0.000571		99999.766008		290.215395		0.000002
        0.277500		1.199994		0.001602		99999.343343		290.215044		0.000005
        0.282500		1.199985		0.004375		99998.206846		290.214102		0.000013
        0.287500		1.199959		0.011606		99995.243026		290.211644		0.000034
        0.292500		1.199895		0.029854		99987.764136		290.205443		0.000087
        0.297500		1.199739		0.074287		99969.555702		290.190343		0.000217
        0.302500		1.199374		0.178311		99926.938790		290.154994		0.000522
        0.307500		1.198555		0.411436		99831.491719		290.075793		0.001205
        0.312500		1.196811		0.908791		99628.139663		289.906889		0.002662
        0.317500		1.193301		1.911182		99219.428525		289.566725		0.005602
        0.322500		1.186740		3.791837		98456.640692		288.929309		0.011126
        0.327500		1.175700		6.975103		97177.218509		287.852348		0.020505
        0.332500		1.159644		11.648441		95324.753456		286.274795		0.034337
        0.337500		1.139560		17.566681		93021.894121		284.282349		0.051964
        0.342500		1.117056		24.297415		90460.514425		282.023889		0.072161
        0.347500		1.093338		31.509784		87782.928702		279.613286		0.093984
        0.352500		1.069081		39.015991		85068.575457		277.115215		0.116896
        0.357500		1.044651		46.715174		82359.448522		274.564458		0.140612
        0.362500		1.020250		54.549863		79678.867327		271.980860		0.164972
        0.367500		0.996006		62.484561		77040.624388		269.376706		0.189880
        0.372500		0.971996		70.495891		74453.213878		266.760102		0.215273
        0.377500		0.948276		78.567759		71921.938712		264.136643		0.241111
        0.382500		0.924881		86.688720		69450.067935		261.510319		0.267365
        0.387500		0.901836		94.850435		67039.522355		258.884049		0.294018
        0.392500		0.879158		103.046712		64691.302311		256.260014		0.321056
        0.397500		0.856859		111.272888		62405.764761		253.639866		0.348472
        0.402500		0.834945		119.525420		60182.808071		251.024876		0.376261
        0.407500		0.813420		127.801610		58021.998249		248.416024		0.404421
        0.412500		0.792288		136.099412		55922.656867		245.814068		0.432952
        0.417500		0.771547		144.417307		53883.923207		243.219589		0.461856
        0.422500		0.751198		152.754215		51904.798566		240.633024		0.491137
        0.427500		0.731236		161.109443		49984.177788		238.054682		0.520798
        0.432500		0.711660		169.482652		48120.871265		235.484760		0.550847
        0.437500		0.692465		177.873863		46313.619444		232.923345		0.581290
        0.442500		0.673645		186.283476		44561.100994		230.370407		0.612136
        0.447500		0.655195		194.712320		42861.935113		227.825793		0.643397
        0.452500		0.637109		203.161751		41214.677850		225.289198		0.675085
        0.457500		0.619377		211.633786		39617.811612		222.760129		0.707218
        0.462500		0.601991		220.131316		38069.725919		220.237851		0.739814
        0.467500		0.584939		228.658426		36568.685874		217.721302		0.772901
        0.472500		0.568207		237.220892		35112.779962		215.208951		0.806510
        0.477500		0.551779		245.827005		33699.833883		212.698598		0.840687
        0.482500		0.535630		254.488988		32327.241064		210.186928		0.875494
        0.487500		0.519727		263.226086		30991.654720		207.668902		0.911025
        0.492500		0.504016		272.070583		29688.094216		205.135293		0.947433
        0.497500		0.488393		281.089005		28408.176370		202.570204		0.985015
        0.502500		0.472608		290.433309		27131.032265		199.924908		1.024472
        0.507500		0.457656		299.518746		25936.935712		197.370208		1.063335
        0.512500		0.443455		308.370440		24817.198265		194.897070		1.101684
        0.517500		0.429968		316.988996		23767.008847		192.504287		1.139491
        0.522500		0.417205		325.344873		22785.297508		190.198535		1.176596
        0.527500		0.405244		333.368715		21875.397538		187.992690		1.212666
        0.532500		0.394235		340.927477		21047.382938		185.927957		1.247029
        0.537500		0.384375		347.761888		20319.130392		184.099336		1.278330
        0.542500		0.376300		353.527486		19721.697028		182.520468		1.305132
        0.547500		0.370655		357.970887		19287.277589		181.218945		1.326273
        0.552500		0.366345		360.839851		18988.178724		180.507651		1.339534
        0.557500		0.363066		362.510676		18795.963347		180.293863		1.346534
        0.562500		0.362047		363.755494		18709.113513		179.966085		1.352388
        0.567500		0.361972		364.539502		18667.378532		179.601888		1.356676
        0.572500		0.361783		364.712530		18622.182685		179.260326		1.358612
        0.577500		0.361201		364.697846		18591.129548		179.249799		1.358598
        0.582500		0.360565		364.744312		18588.655589		179.542106		1.357664
        0.587500		0.360496		364.739622		18597.445397		179.661570		1.357195
        0.592500		0.360557		364.725814		18614.679844		179.797536		1.356631
        0.597500		0.360777		364.711209		18632.364049		179.858715		1.356346
        0.602500		0.361238		364.637151		18638.636731		179.689272		1.356709
        0.607500		0.361689		364.513997		18635.175718		179.432082		1.357223
        0.612500		0.361728		364.423606		18629.158231		179.354905		1.357178
        0.617500		0.361666		364.412577		18628.996563		179.384210		1.357026
        0.622500		0.361455		364.433648		18631.937795		179.517231		1.356602
        0.627500		0.361074		364.488764		18639.028133		179.774764		1.355835
        0.632500		0.360612		364.514000		18643.805359		180.051250		1.354887
        0.637500		0.360242		364.503159		18644.536675		180.243569		1.354124
        0.642500		0.359889		364.473440		18642.661746		180.401865		1.353419
        0.647500		0.359358		364.441303		18639.226660		180.635189		1.352426
        0.652500		0.358278		364.439024		18638.357697		181.171166		1.350415
        0.657500		0.355848		364.450620		18638.975731		182.414777		1.345847
        0.662500		0.350621		364.477440		18641.704881		185.160882		1.335928
        0.667500		0.340357		364.496697		18644.418374		190.772841		1.316201
        0.672500		0.322145		364.494909		18645.318151		201.567669		1.280466
        0.677500		0.293043		364.481469		18645.223630		221.583879		1.221218
        0.682500		0.251803		364.457189		18644.137839		257.859191		1.131989
        0.687500		0.204725		364.428492		18642.753294		317.133550		1.020653
        0.692500		0.169904		364.413590		18642.444164		382.121383		0.929781
        0.697500		0.153432		364.409465		18642.821700		423.154628		0.883542
        0.702500		0.146899		364.415613		18643.774140		441.994688		0.864521
        0.707500		0.144551		364.437222		18645.624030		449.219116		0.857592
        0.712500		0.143843		364.476816		18648.541158		451.500386		0.855515
        0.717500		0.143700		364.505833		18650.773288		452.003572		0.855107
        0.722500		0.143700		364.509181		18651.411723		452.019438		0.855100
        0.727500		0.143753		364.502345		18651.420481		451.852726		0.855242
        0.732500		0.143881		364.484015		18650.689995		451.432654		0.855596
        0.737500		0.144020		364.445662		18648.710887		450.950099		0.855964
        0.742500		0.144075		364.400464		18646.284142		450.717926		0.856078
        0.747500		0.144090		364.386093		18645.713471		450.659221		0.856100
        0.752500		0.144091		364.386832		18646.038642		450.663044		0.856098
        0.757500		0.144090		364.403725		18647.286970		450.696509		0.856106
        0.762500		0.144095		364.453910		18650.514384		450.758112		0.856166
        0.767500		0.144122		364.558378		18657.006722		450.832231		0.856341
        0.772500		0.144177		364.706730		18666.132616		450.878148		0.856646
        0.777500		0.144219		364.771587		18670.086358		450.844579		0.856830
        0.782500		0.144233		364.768429		18669.809754		450.792309		0.856872
        0.787500		0.144228		364.695205		18665.196703		450.696629		0.856791
        0.792500		0.144134		364.336107		18643.016964		450.454742		0.856177
        0.797500		0.143656		362.870718		18553.137259		449.774541		0.853378
        0.802500		0.141724		357.124078		18204.332106		447.334096		0.842151
        0.807500		0.134522		335.066930		16915.633726		437.923678		0.798582
        0.812500		0.111961		255.889193		12991.044459		404.089700		0.634892
        0.817500		0.075073		87.887555		7068.687114		327.912523		0.242067
        0.822500		0.061891		10.934533		5227.375482		294.143075		0.031799
        0.827500		0.060220		1.253298		5025.723380		290.643936		0.003667
        0.832500		0.060025		0.140809		5002.886235		290.263473		0.000412
        0.837500		0.060003		0.015809		5000.324006		290.220962		0.000046
        0.842500		0.060000		0.001775		5000.036376		290.216192		0.000005
        0.847500		0.060000		0.000199		5000.004084		290.215656		0.000001
        0.852500		0.060000		0.000022		5000.000459		290.215596		0.000000
        0.857500		0.060000		0.000003		5000.000051		290.215590		0.000000
        0.862500		0.060000		0.000000		5000.000006		290.215589		0.000000
        0.867500		0.060000		0.000000		5000.000001		290.215589		0.000000
        0.872500		0.060000		0.000000		5000.000000		290.215589		0.000000
        0.877500		0.060000		0.000000		5000.000000		290.215589		0.000000
        0.882500		0.060000		0.000000		5000.000000		290.215589		0.000000
        0.887500		0.060000		0.000000		5000.000000		290.215589		0.000000
        0.892500		0.060000		0.000000		5000.000000		290.215589		0.000000
        0.897500		0.060000		0.000000		5000.000000		290.215589		0.000000
        0.902500		0.060000		0.000000		5000.000000		290.215589		0.000000
        0.907500		0.060000		0.000000		5000.000000		290.215589		0.000000
        0.912500		0.060000		0.000000		5000.000000		290.215589		0.000000
        0.917500		0.060000		0.000000		5000.000000		290.215589		0.000000
        0.922500		0.060000		0.000000		5000.000000		290.215589		0.000000
        0.927500		0.060000		0.000000		5000.000000		290.215589		0.000000
        0.932500		0.060000		0.000000		5000.000000		290.215589		0.000000
        0.937500		0.060000		0.000000		5000.000000		290.215589		0.000000
        0.942500		0.060000		0.000000		5000.000000		290.215589		0.000000
        0.947500		0.060000		0.000000		5000.000000		290.215589		0.000000
        0.952500		0.060000		0.000000		5000.000000		290.215589		0.000000
        0.957500		0.060000		0.000000		5000.000000		290.215589		0.000000
        0.962500		0.060000		0.000000		5000.000000		290.215589		0.000000
        0.967500		0.060000		0.000000		5000.000000		290.215589		0.000000
        0.972500		0.060000		0.000000		5000.000000		290.215589		0.000000
        0.977500		0.060000		0.000000		5000.000000		290.215589		0.000000
        0.982500		0.060000		0.000000		5000.000000		290.215589		0.000000
        0.987500		0.060000		0.000000		5000.000000		290.215589		0.000000
        0.992500		0.060000		0.000000		5000.000000		290.215589		0.000000
        0.997500		0.060000		0.000000		5000.000000		290.215589		0.000000
