Variables = X,Ro,U,P,T,M
Zone i = 200
        0.002500		1.200000		0.000000		100000.000000		290.215589		0.000000
        0.007500		1.200000		0.000000		100000.000000		290.215589		0.000000
        0.012500		1.200000		0.000000		100000.000000		290.215589		0.000000
        0.017500		1.200000		0.000000		100000.000000		290.215589		0.000000
        0.022500		1.200000		0.000000		100000.000000		290.215589		0.000000
        0.027500		1.200000		0.000000		100000.000000		290.215589		0.000000
        0.032500		1.200000		0.000000		100000.000000		290.215589		0.000000
        0.037500		1.200000		0.000000		100000.000000		290.215589		0.000000
        0.042500		1.200000		0.000000		100000.000000		290.215589		0.000000
        0.047500		1.200000		0.000000		100000.000000		290.215589		0.000000
        0.052500		1.200000		0.000000		100000.000000		290.215589		0.000000
        0.057500		1.200000		0.000000		100000.000000		290.215589		0.000000
        0.062500		1.200000		0.000000		100000.000000		290.215589		0.000000
        0.067500		1.200000		0.000000		100000.000000		290.215589		0.000000
        0.072500		1.200000		0.000000		100000.000000		290.215589		0.000000
        0.077500		1.200000		0.000000		100000.000000		290.215589		0.000000
        0.082500		1.200000		0.000000		100000.000000		290.215589		0.000000
        0.087500		1.200000		0.000000		100000.000000		290.215589		0.000000
        0.092500		1.200000		0.000000		100000.000000		290.215589		0.000000
        0.097500		1.200000		0.000000		100000.000000		290.215589		0.000000
        0.102500		1.200000		0.000000		100000.000000		290.215589		0.000000
        0.107500		1.200000		0.000000		99999.999999		290.215589		0.000000
        0.112500		1.200000		0.000000		99999.999998		290.215589		0.000000
        0.117500		1.200000		0.000000		99999.999994		290.215589		0.000000
        0.122500		1.200000		0.000000		99999.999987		290.215589		0.000000
        0.127500		1.200000		0.000000		99999.999971		290.215589		0.000000
        0.132500		1.200000		0.000000		99999.999935		290.215589		0.000000
        0.137500		1.200000		0.000000		99999.999858		290.215589		0.000000
        0.142500		1.200000		0.000001		99999.999692		290.215588		0.000000
        0.147500		1.200000		0.000002		99999.999343		290.215588		0.000000
        0.152500		1.200000		0.000003		99999.998619		290.215588		0.000000
        0.157500		1.200000		0.000007		99999.997138		290.215586		0.000000
        0.162500		1.200000		0.000014		99999.994151		290.215584		0.000000
        0.167500		1.200000		0.000029		99999.988221		290.215579		0.000000
        0.172500		1.200000		0.000057		99999.976628		290.215569		0.000000
        0.177500		1.200000		0.000111		99999.954317		290.215551		0.000000
        0.182500		1.199999		0.000215		99999.912057		290.215516		0.000001
        0.187500		1.199999		0.000407		99999.833303		290.215451		0.000001
        0.192500		1.199997		0.000759		99999.688944		290.215331		0.000002
        0.197500		1.199995		0.001394		99999.428742		290.215115		0.000004
        0.202500		1.199991		0.002519		99998.967703		290.214733		0.000007
        0.207500		1.199984		0.004477		99998.164946		290.214067		0.000013
        0.212500		1.199973		0.007827		99996.791846		290.212929		0.000023
        0.217500		1.199953		0.013454		99994.485416		290.211016		0.000039
        0.222500		1.199920		0.022734		99990.682296		290.207863		0.000067
        0.227500		1.199867		0.037749		99984.528570		290.202760		0.000111
        0.232500		1.199784		0.061582		99974.761404		290.194661		0.000180
        0.237500		1.199653		0.098678		99959.560717		290.182055		0.000289
        0.242500		1.199455		0.155273		99936.373094		290.162825		0.000455
        0.247500		1.199157		0.239883		99901.716366		290.134080		0.000702
        0.252500		1.198722		0.363788		99850.981213		290.091993		0.001065
        0.257500		1.198098		0.541490		99778.255051		290.031648		0.001586
        0.262500		1.197223		0.791033		99676.201193		289.946935		0.002317
        0.267500		1.196019		1.134124		99536.030462		289.830519		0.003323
        0.272500		1.194401		1.595970		99347.600163		289.673898		0.004677
        0.277500		1.192269		2.204777		99099.664718		289.467595		0.006463
        0.282500		1.189520		2.990897		98780.283366		289.201451		0.008772
        0.287500		1.186048		3.985674		98377.365591		288.865044		0.011696
        0.292500		1.181749		5.220081		97879.309540		288.448158		0.015330
        0.297500		1.176528		6.723284		97275.668748		287.941287		0.019761
        0.302500		1.170305		8.521290		96557.773515		287.336096		0.025072
        0.307500		1.163017		10.635819		95719.237887		286.625810		0.031333
        0.312500		1.154621		13.083504		94756.300379		285.805470		0.038599
        0.317500		1.145100		15.875474		93667.971960		284.872064		0.046913
        0.322500		1.134455		19.017313		92455.992190		283.824520		0.056300
        0.327500		1.122711		22.509350		91124.618161		282.663582		0.066775
        0.332500		1.109910		26.347213		89680.286842		281.391607		0.078337
        0.337500		1.096111		30.522543		88131.198458		280.012292		0.090974
        0.342500		1.081383		35.023785		86486.867322		278.530395		0.104668
        0.347500		1.065804		39.836998		84757.679551		276.951443		0.119391
        0.352500		1.049458		44.946605		82954.486956		275.281470		0.135112
        0.357500		1.032429		50.336060		81088.255676		273.526784		0.151798
        0.362500		1.014803		55.988420		79169.778444		271.693770		0.169412
        0.367500		0.996664		61.886797		77209.451729		269.788741		0.187920
        0.372500		0.978091		68.014716		75217.113668		267.817814		0.207286
        0.377500		0.959160		74.356371		73201.935471		265.786830		0.227477
        0.382500		0.939942		80.896808		71172.357523		263.701297		0.248463
        0.387500		0.920502		87.622038		69136.061143		261.566351		0.270215
        0.392500		0.900900		94.519106		67099.967555		259.386747		0.292707
        0.397500		0.881190		101.576111		65070.256621		257.166848		0.315916
        0.402500		0.861421		108.782210		63052.399085		254.910633		0.339822
        0.407500		0.841638		116.127597		61051.197277		252.621708		0.364407
        0.412500		0.821880		123.603477		59070.830275		250.303318		0.389659
        0.417500		0.802181		131.202031		57114.900499		247.958366		0.415564
        0.422500		0.782573		138.916395		55186.479375		245.589420		0.442115
        0.427500		0.763082		146.740636		53288.150295		243.198729		0.469307
        0.432500		0.743731		154.669752		51422.047402		240.788230		0.497135
        0.437500		0.724540		162.699687		49589.888841		238.359540		0.525602
        0.442500		0.705525		170.827391		47793.002973		235.913956		0.554712
        0.447500		0.686699		179.050916		46032.345518		233.452422		0.584473
        0.452500		0.668072		187.369599		44308.504451		230.975486		0.614898
        0.457500		0.649648		195.784350		42621.687282		228.483220		0.646008
        0.462500		0.631430		204.298145		40971.680981		225.975085		0.677831
        0.467500		0.613413		212.916854		39357.765830		223.449698		0.710407
        0.472500		0.595584		221.650704		37778.544742		220.904426		0.743796
        0.477500		0.577919		230.517035		36231.601852		218.334603		0.778088
        0.482500		0.560373		239.545982		34712.774014		215.731929		0.813427
        0.487500		0.542856		248.793866		33214.398662		213.080690		0.850070
        0.492500		0.525172		258.381999		31720.159392		210.346790		0.888549
        0.497500		0.506742		268.660993		30182.950695		207.432520		0.930365
        0.502500		0.481585		283.236358		28113.881370		203.305879		0.990743
        0.507500		0.454044		299.908782		25897.316873		198.636300		1.061321
        0.512500		0.440490		308.378857		24829.977985		196.309858		1.097743
        0.517500		0.428460		316.063684		23894.554258		194.218324		1.131140
        0.522500		0.417445		323.245920		23047.900882		192.279907		1.162661
        0.527500		0.407307		329.984682		22277.170579		190.476109		1.192506
        0.532500		0.398024		336.265599		21578.949995		188.808993		1.220557
        0.537500		0.389631		342.037951		20954.053151		187.290608		1.246532
        0.542500		0.382188		347.231368		20405.330677		185.938351		1.270052
        0.547500		0.375758		351.769907		19936.130401		184.771217		1.290709
        0.552500		0.370393		355.588535		19548.765279		183.805519		1.308144
        0.557500		0.366103		358.651877		19242.931905		183.050062		1.322133
        0.562500		0.362842		360.970830		19014.405179		182.501868		1.332679
        0.567500		0.360498		362.610028		18854.551167		182.144297		1.340044
        0.572500		0.358904		363.680669		18751.074833		181.949052		1.344721
        0.577500		0.357865		364.319627		18689.902539		181.881966		1.347332
        0.582500		0.357189		364.663051		18657.496088		181.910508		1.348497
        0.587500		0.356709		364.825097		18642.687863		182.010319		1.348726
        0.592500		0.356299		364.888109		18637.485640		182.169181		1.348370
        0.597500		0.355859		364.903763		18636.893333		182.388611		1.347617
        0.602500		0.355307		364.900362		18638.180225		182.684373		1.346513
        0.607500		0.354561		364.891328		18640.053985		183.087104		1.344998
        0.612500		0.353524		364.881990		18642.003366		183.643554		1.342924
        0.617500		0.352074		364.873924		18643.878620		184.418234		1.340071
        0.622500		0.350064		364.867287		18645.666902		185.494870		1.336152
        0.627500		0.347322		364.861852		18647.391002		186.977043		1.330826
        0.632500		0.343658		364.857400		18649.072496		188.987588		1.323712
        0.637500		0.338884		364.853800		18650.722976		191.666620		1.314415
        0.642500		0.332833		364.851003		18652.345056		195.168229		1.302561
        0.647500		0.325379		364.849005		18653.935512		199.655996		1.287831
        0.652500		0.316465		364.847822		18655.488052		205.297290		1.270010
        0.657500		0.306114		364.847472		18656.995266		212.256023		1.249017
        0.662500		0.294448		364.847961		18658.449883		220.683208		1.224938
        0.667500		0.281679		364.849282		18659.845555		230.704373		1.198043
        0.672500		0.268104		364.851408		18661.177297		242.403022		1.168783
        0.677500		0.254080		364.854296		18662.441669		255.799884		1.137775
        0.682500		0.239995		364.857880		18663.636702		270.829129		1.105765
        0.687500		0.226238		364.862076		18664.761556		287.314880		1.073586
        0.692500		0.213164		364.866772		18665.815890		304.954013		1.042087
        0.697500		0.201070		364.871822		18666.798867		323.313333		1.012082
        0.702500		0.190177		364.877083		18667.704272		341.848989		0.984275
        0.707500		0.180621		364.882252		18668.527824		359.952103		0.959218
        0.712500		0.172452		364.886904		18669.258539		377.016349		0.937271
        0.717500		0.165649		364.890472		18669.870145		392.514170		0.918590
        0.722500		0.160126		364.892083		18670.317036		406.062498		0.903140
        0.727500		0.155755		364.890361		18670.521945		417.460604		0.890721
        0.732500		0.152384		364.883097		18670.355508		426.692021		0.881015
        0.737500		0.149849		364.866689		18669.602183		433.894540		0.873633
        0.742500		0.147988		364.835220		18667.903358		439.310993		0.868156
        0.747500		0.146652		364.778904		18664.662579		443.235767		0.864170
        0.752500		0.145708		364.681517		18658.888367		445.968512		0.861288
        0.757500		0.145041		364.516146		18648.934925		447.780590		0.859154
        0.762500		0.144550		364.238185		18632.077071		448.894421		0.857433
        0.767500		0.144145		363.773865		18603.818773		449.472420		0.855789
        0.772500		0.143737		363.001544		18556.779930		449.610633		0.853841
        0.777500		0.143223		361.721399		18478.932398		449.331676		0.851094
        0.782500		0.142471		359.606850		18350.877326		448.571317		0.846836
        0.787500		0.141295		356.128040		18141.835124		447.152391		0.839973
        0.792500		0.139419		350.435079		17804.254565		444.738626		0.828785
        0.797500		0.136440		341.190725		17267.955512		440.760609		0.810556
        0.802500		0.131807		326.362502		16437.618905		434.311890		0.781064
        0.807500		0.124866		303.062460		15203.903017		424.044304		0.734029
        0.812500		0.115074		267.754229		13488.176021		408.206157		0.660973
        0.817500		0.102507		217.664368		11340.530462		385.283428		0.553075
        0.822500		0.088559		154.671622		9055.316116		356.100730		0.408800
        0.827500		0.075987		90.336598		7129.546851		326.755303		0.249252
        0.832500		0.067317		41.989284		5915.371942		306.027479		0.119714
        0.837500		0.062827		16.194609		5339.372542		295.969067		0.046950
        0.842500		0.060987		5.634982		5116.338945		292.161140		0.016443
        0.847500		0.060330		1.879317		5038.607396		290.857666		0.005496
        0.852500		0.060108		0.617306		5012.660941		290.425752		0.001807
        0.857500		0.060035		0.201690		5004.134465		290.284175		0.000590
        0.862500		0.060012		0.065763		5001.347858		290.237944		0.000193
        0.867500		0.060004		0.021422		5000.439026		290.222870		0.000063
        0.872500		0.060001		0.006973		5000.142906		290.217959		0.000020
        0.877500		0.060000		0.002268		5000.046487		290.216360		0.000007
        0.882500		0.060000		0.000737		5000.015111		290.215839		0.000002
        0.887500		0.060000		0.000240		5000.004908		290.215670		0.000001
        0.892500		0.060000		0.000078		5000.001593		290.215615		0.000000
        0.897500		0.060000		0.000025		5000.000516		290.215597		0.000000
        0.902500		0.060000		0.000008		5000.000167		290.215591		0.000000
        0.907500		0.060000		0.000003		5000.000054		290.215590		0.000000
        0.912500		0.060000		0.000001		5000.000017		290.215589		0.000000
        0.917500		0.060000		0.000000		5000.000006		290.215589		0.000000
        0.922500		0.060000		0.000000		5000.000002		290.215589		0.000000
        0.927500		0.060000		0.000000		5000.000001		290.215589		0.000000
        0.932500		0.060000		0.000000		5000.000000		290.215589		0.000000
        0.937500		0.060000		0.000000		5000.000000		290.215589		0.000000
        0.942500		0.060000		0.000000		5000.000000		290.215589		0.000000
        0.947500		0.060000		0.000000		5000.000000		290.215589		0.000000
        0.952500		0.060000		0.000000		5000.000000		290.215589		0.000000
        0.957500		0.060000		0.000000		5000.000000		290.215589		0.000000
        0.962500		0.060000		0.000000		5000.000000		290.215589		0.000000
        0.967500		0.060000		0.000000		5000.000000		290.215589		0.000000
        0.972500		0.060000		0.000000		5000.000000		290.215589		0.000000
        0.977500		0.060000		0.000000		5000.000000		290.215589		0.000000
        0.982500		0.060000		0.000000		5000.000000		290.215589		0.000000
        0.987500		0.060000		0.000000		5000.000000		290.215589		0.000000
        0.992500		0.060000		0.000000		5000.000000		290.215589		0.000000
        0.997500		0.060000		0.000000		5000.000000		290.215589		0.000000
