Variables = X,Ro,U,P,T,M
Zone i = 200
        0.002500		1.200000		0.000000		100000.000000		290.215589		0.000000
        0.007500		1.200000		0.000000		100000.000000		290.215589		0.000000
        0.012500		1.200000		0.000000		100000.000000		290.215589		0.000000
        0.017500		1.200000		0.000000		100000.000000		290.215589		0.000000
        0.022500		1.200000		0.000000		100000.000000		290.215589		0.000000
        0.027500		1.200000		0.000000		100000.000000		290.215589		0.000000
        0.032500		1.200000		0.000000		100000.000000		290.215589		0.000000
        0.037500		1.200000		0.000000		100000.000000		290.215589		0.000000
        0.042500		1.200000		0.000000		100000.000000		290.215589		0.000000
        0.047500		1.200000		0.000000		100000.000000		290.215589		0.000000
        0.052500		1.200000		0.000000		100000.000000		290.215589		0.000000
        0.057500		1.200000		0.000000		100000.000000		290.215589		0.000000
        0.062500		1.200000		0.000000		100000.000000		290.215589		0.000000
        0.067500		1.200000		0.000000		100000.000000		290.215589		0.000000
        0.072500		1.200000		0.000000		100000.000000		290.215589		0.000000
        0.077500		1.200000		0.000000		100000.000000		290.215589		0.000000
        0.082500		1.200000		0.000000		100000.000000		290.215589		0.000000
        0.087500		1.200000		0.000000		100000.000000		290.215589		0.000000
        0.092500		1.200000		0.000000		100000.000000		290.215589		0.000000
        0.097500		1.200000		0.000000		100000.000000		290.215589		0.000000
        0.102500		1.200000		0.000000		100000.000000		290.215589		0.000000
        0.107500		1.200000		0.000000		100000.000000		290.215589		0.000000
        0.112500		1.200000		0.000000		100000.000000		290.215589		0.000000
        0.117500		1.200000		0.000000		100000.000000		290.215589		0.000000
        0.122500		1.200000		0.000000		100000.000000		290.215589		0.000000
        0.127500		1.200000		0.000000		100000.000000		290.215589		0.000000
        0.132500		1.200000		0.000000		100000.000000		290.215589		0.000000
        0.137500		1.200000		0.000000		100000.000000		290.215589		0.000000
        0.142500		1.200000		0.000000		100000.000000		290.215589		0.000000
        0.147500		1.200000		0.000000		100000.000000		290.215589		0.000000
        0.152500		1.200000		0.000000		100000.000000		290.215589		0.000000
        0.157500		1.200000		0.000000		100000.000000		290.215589		0.000000
        0.162500		1.200000		0.000000		100000.000000		290.215589		0.000000
        0.167500		1.200000		0.000000		100000.000000		290.215589		0.000000
        0.172500		1.200000		0.000000		100000.000000		290.215589		0.000000
        0.177500		1.200000		0.000000		100000.000000		290.215589		0.000000
        0.182500		1.200000		0.000000		100000.000000		290.215589		0.000000
        0.187500		1.200000		0.000000		100000.000000		290.215589		0.000000
        0.192500		1.200000		0.000000		100000.000000		290.215589		0.000000
        0.197500		1.200000		0.000000		100000.000000		290.215589		0.000000
        0.202500		1.200000		0.000000		100000.000000		290.215589		0.000000
        0.207500		1.200000		0.000000		100000.000000		290.215589		0.000000
        0.212500		1.200000		0.000000		100000.000000		290.215589		0.000000
        0.217500		1.200000		0.000000		99999.999999		290.215589		0.000000
        0.222500		1.200000		0.000000		99999.999998		290.215589		0.000000
        0.227500		1.200000		0.000000		99999.999991		290.215589		0.000000
        0.232500		1.200000		0.000000		99999.999970		290.215589		0.000000
        0.237500		1.200000		0.000000		99999.999901		290.215589		0.000000
        0.242500		1.200000		0.000001		99999.999673		290.215588		0.000000
        0.247500		1.200000		0.000003		99999.998946		290.215588		0.000000
        0.252500		1.200000		0.000008		99999.996675		290.215586		0.000000
        0.257500		1.200000		0.000025		99999.989738		290.215580		0.000000
        0.262500		1.200000		0.000076		99999.969038		290.215563		0.000000
        0.267500		1.199999		0.000223		99999.908782		290.215513		0.000001
        0.272500		1.199998		0.000640		99999.737857		290.215371		0.000002
        0.277500		1.199994		0.001791		99999.266041		290.214980		0.000005
        0.282500		1.199983		0.004878		99998.000743		290.213931		0.000014
        0.287500		1.199955		0.012905		99994.710600		290.211203		0.000038
        0.292500		1.199884		0.033097		99986.434919		290.204340		0.000097
        0.297500		1.199712		0.082088		99966.359034		290.187691		0.000240
        0.302500		1.199310		0.196318		99919.563186		290.148876		0.000575
        0.307500		1.198416		0.451127		99815.248937		290.062310		0.001321
        0.312500		1.196520		0.991826		99594.223579		289.878699		0.002905
        0.317500		1.192730		2.074528		99152.963282		289.511325		0.006081
        0.322500		1.185709		4.087926		98337.015676		288.829058		0.011997
        0.327500		1.174056		7.451183		96987.104804		287.691506		0.021910
        0.332500		1.157388		12.309050		95065.332632		286.052178		0.036299
        0.337500		1.136839		18.374869		92711.129427		284.010829		0.054381
        0.342500		1.114026		25.211901		90117.223323		281.717789		0.074918
        0.347500		1.090106		32.502033		87419.948893		279.282527		0.097001
        0.352500		1.065718		40.067605		84694.127979		276.766212		0.120122
        0.357500		1.041204		47.812869		81979.310974		274.201828		0.144011
        0.362500		1.016761		55.682632		79297.570569		271.608399		0.168514
        0.367500		0.992506		63.642385		76661.992135		268.997827		0.193535
        0.372500		0.968519		71.669150		74080.609630		266.378036		0.219013
        0.377500		0.944849		79.746937		71558.391445		263.754537		0.244907
        0.382500		0.921533		87.864226		69098.344962		261.131295		0.271187
        0.387500		0.898592		96.012487		66702.177441		258.511243		0.297834
        0.392500		0.876044		104.185234		64370.711807		255.896606		0.324834
        0.397500		0.853898		112.377412		62104.157980		253.289110		0.352174
        0.402500		0.832163		120.584986		59902.295084		250.690127		0.379850
        0.407500		0.810841		128.804652		57764.596583		248.100772		0.407854
        0.412500		0.789935		137.033630		55690.317643		245.521976		0.436183
        0.417500		0.769445		145.269526		53678.556612		242.954529		0.464835
        0.422500		0.749372		153.510227		51728.298194		240.399120		0.493808
        0.427500		0.729712		161.753835		49838.443259		237.856359		0.523099
        0.432500		0.710465		169.998629		48007.828680		235.326788		0.552709
        0.437500		0.691627		178.243051		46235.239742		232.810888		0.582637
        0.442500		0.673194		186.485712		44519.417233		230.309079		0.612882
        0.447500		0.655163		194.725409		42859.061124		227.821717		0.643446
        0.452500		0.637529		202.961164		41252.832607		225.349083		0.674329
        0.457500		0.620286		211.192250		39699.355897		222.891376		0.705535
        0.462500		0.603429		219.418232		38197.220821		220.448704		0.737065
        0.467500		0.586951		227.638993		36744.986986		218.021083		0.768926
        0.472500		0.570844		235.854743		35341.191362		215.608422		0.801122
        0.477500		0.555102		244.065966		33984.365576		213.210572		0.833662
        0.482500		0.539716		252.273236		32673.068529		210.827331		0.866552
        0.487500		0.524679		260.476885		31405.944775		208.458593		0.899801
        0.492500		0.509987		268.676734		30181.746670		206.104436		0.933412
        0.497500		0.495632		276.872956		28999.196827		203.764570		0.967394
        0.502500		0.481602		285.069024		27856.664359		201.438722		1.001764
        0.507500		0.467884		293.270514		26752.236794		199.123925		1.036558
        0.512500		0.454509		301.449443		25688.340728		196.832049		1.071651
        0.517500		0.441703		309.472994		24679.336179		194.583122		1.106515
        0.522500		0.429455		317.316210		23728.571825		192.422439		1.140910
        0.527500		0.416902		325.502111		22764.210425		190.160481		1.177282
        0.532500		0.405384		333.374720		21882.925683		187.992409		1.212689
        0.537500		0.393609		341.206039		21001.423859		185.817286		1.248420
        0.542500		0.380713		350.328356		20080.536383		183.687431		1.289207
        0.547500		0.370783		358.933421		19258.423173		180.885054		1.331066
        0.552500		0.361963		362.199234		18660.420911		179.539084		1.348202
        0.557500		0.359795		364.752715		18580.721263		179.849658		1.356534
        0.562500		0.360036		365.979170		18595.389219		179.871261		1.361014
        0.567500		0.360281		366.152745		18579.719346		179.597150		1.362698
        0.572500		0.360555		365.814784		18554.157561		179.213821		1.362895
        0.577500		0.360684		365.150999		18548.826700		179.098094		1.360862
        0.582500		0.360702		364.510832		18548.230358		179.083785		1.358530
        0.587500		0.360594		364.368759		18569.379161		179.341682		1.357024
        0.592500		0.360430		364.617447		18601.049515		179.728909		1.356486
        0.597500		0.360612		364.985934		18632.816114		179.945116		1.357041
        0.602500		0.360863		365.044894		18636.917830		179.859859		1.357582
        0.607500		0.361139		364.971052		18632.025844		179.675175		1.358005
        0.612500		0.361150		364.730959		18613.275756		179.488936		1.357815
        0.617500		0.360992		364.479662		18601.584739		179.454484		1.357010
        0.622500		0.360701		364.375501		18605.142665		179.633442		1.355946
        0.627500		0.360348		364.420296		18616.262624		179.917105		1.355044
        0.632500		0.360362		364.573180		18635.601243		180.096895		1.354935
        0.637500		0.360604		364.657475		18649.879159		180.113782		1.355185
        0.642500		0.360834		364.628836		18655.498489		180.053662		1.355305
        0.647500		0.360734		364.525577		18654.363109		180.092314		1.354776
        0.652500		0.360012		364.356667		18649.284091		180.404332		1.352976
        0.657500		0.357797		364.243743		18648.763967		181.516402		1.348407
        0.662500		0.352556		364.241010		18655.104146		184.277410		1.338258
        0.667500		0.341730		364.285552		18668.056388		190.247062		1.317255
        0.672500		0.321857		364.351555		18681.984676		202.144651		1.278134
        0.677500		0.289367		364.564171		18709.857858		225.176760		1.211711
        0.682500		0.241891		364.599325		18767.373252		270.199777		1.106268
        0.687500		0.189299		364.129022		18760.900240		345.149005		0.977550
        0.692500		0.158810		364.304938		18713.951920		410.384540		0.896926
        0.697500		0.147665		364.301681		18678.331031		440.517773		0.865698
        0.702500		0.144075		364.227010		18659.825800		451.046963		0.855359
        0.707500		0.143101		364.186555		18651.916387		453.922535		0.852550
        0.712500		0.142927		364.203843		18650.494179		454.442596		0.852103
        0.717500		0.142940		364.245529		18651.823718		454.433200		0.852209
        0.722500		0.143068		364.330340		18655.912901		454.124694		0.852697
        0.727500		0.143385		364.479077		18663.732186		453.312730		0.853809
        0.732500		0.143793		364.600593		18670.223643		452.182475		0.855160
        0.737500		0.144067		364.630683		18671.345796		451.348167		0.856021
        0.742500		0.144220		364.638239		18670.558951		450.852364		0.856509
        0.747500		0.144315		364.625093		18668.340636		450.501555		0.856812
        0.752500		0.144371		364.571837		18663.818347		450.217364		0.856957
        0.757500		0.144403		364.499598		18658.119891		449.981356		0.857012
        0.762500		0.144432		364.485512		18656.046866		449.840739		0.857113
        0.767500		0.144453		364.501802		18655.881220		449.772198		0.857216
        0.772500		0.144465		364.547322		18657.646661		449.775172		0.857320
        0.777500		0.144480		364.663240		18663.760507		449.876849		0.857496
        0.782500		0.144515		364.911486		18678.097919		450.113323		0.857854
        0.787500		0.144512		365.016750		18684.428862		450.274900		0.857948
        0.792500		0.144435		364.947078		18680.129787		450.410234		0.857655
        0.797500		0.144144		364.231453		18638.571786		450.316592		0.856062
        0.802500		0.142719		359.825231		18383.126306		448.578514		0.847343
        0.807500		0.135737		337.685619		17111.263791		439.022610		0.803815
        0.812500		0.110270		245.834707		12660.963883		399.864284		0.613160
        0.817500		0.072270		71.202743		6641.282398		320.031611		0.198512
        0.822500		0.061485		8.527826		5177.153256		293.240049		0.024838
        0.827500		0.060171		0.972252		5019.951986		290.547398		0.002845
        0.832500		0.060019		0.109156		5002.237351		290.252703		0.000320
        0.837500		0.060002		0.012251		5000.251081		290.219753		0.000036
        0.842500		0.060000		0.001375		5000.028184		290.216056		0.000004
        0.847500		0.060000		0.000154		5000.003165		290.215641		0.000000
        0.852500		0.060000		0.000017		5000.000356		290.215595		0.000000
        0.857500		0.060000		0.000002		5000.000040		290.215589		0.000000
        0.862500		0.060000		0.000000		5000.000004		290.215589		0.000000
        0.867500		0.060000		0.000000		5000.000001		290.215589		0.000000
        0.872500		0.060000		0.000000		5000.000000		290.215589		0.000000
        0.877500		0.060000		0.000000		5000.000000		290.215589		0.000000
        0.882500		0.060000		0.000000		5000.000000		290.215589		0.000000
        0.887500		0.060000		0.000000		5000.000000		290.215589		0.000000
        0.892500		0.060000		0.000000		5000.000000		290.215589		0.000000
        0.897500		0.060000		0.000000		5000.000000		290.215589		0.000000
        0.902500		0.060000		0.000000		5000.000000		290.215589		0.000000
        0.907500		0.060000		0.000000		5000.000000		290.215589		0.000000
        0.912500		0.060000		0.000000		5000.000000		290.215589		0.000000
        0.917500		0.060000		0.000000		5000.000000		290.215589		0.000000
        0.922500		0.060000		0.000000		5000.000000		290.215589		0.000000
        0.927500		0.060000		0.000000		5000.000000		290.215589		0.000000
        0.932500		0.060000		0.000000		5000.000000		290.215589		0.000000
        0.937500		0.060000		0.000000		5000.000000		290.215589		0.000000
        0.942500		0.060000		0.000000		5000.000000		290.215589		0.000000
        0.947500		0.060000		0.000000		5000.000000		290.215589		0.000000
        0.952500		0.060000		0.000000		5000.000000		290.215589		0.000000
        0.957500		0.060000		0.000000		5000.000000		290.215589		0.000000
        0.962500		0.060000		0.000000		5000.000000		290.215589		0.000000
        0.967500		0.060000		0.000000		5000.000000		290.215589		0.000000
        0.972500		0.060000		0.000000		5000.000000		290.215589		0.000000
        0.977500		0.060000		0.000000		5000.000000		290.215589		0.000000
        0.982500		0.060000		0.000000		5000.000000		290.215589		0.000000
        0.987500		0.060000		0.000000		5000.000000		290.215589		0.000000
        0.992500		0.060000		0.000000		5000.000000		290.215589		0.000000
        0.997500		0.060000		0.000000		5000.000000		290.215589		0.000000
