Variables = X,Ro,U,P,T,M
Zone i = 200
        0.002500		1.200000		0.000000		100000.000000		290.215589		0.000000
        0.007500		1.200000		0.000000		100000.000000		290.215589		0.000000
        0.012500		1.200000		0.000000		100000.000000		290.215589		0.000000
        0.017500		1.200000		0.000000		100000.000000		290.215589		0.000000
        0.022500		1.200000		0.000000		100000.000000		290.215589		0.000000
        0.027500		1.200000		0.000000		100000.000000		290.215589		0.000000
        0.032500		1.200000		0.000000		100000.000000		290.215589		0.000000
        0.037500		1.200000		0.000000		100000.000000		290.215589		0.000000
        0.042500		1.200000		0.000000		100000.000000		290.215589		0.000000
        0.047500		1.200000		0.000000		100000.000000		290.215589		0.000000
        0.052500		1.200000		0.000000		100000.000000		290.215589		0.000000
        0.057500		1.200000		0.000000		100000.000000		290.215589		0.000000
        0.062500		1.200000		0.000000		100000.000000		290.215589		0.000000
        0.067500		1.200000		0.000000		100000.000000		290.215589		0.000000
        0.072500		1.200000		0.000000		100000.000000		290.215589		0.000000
        0.077500		1.200000		0.000000		100000.000000		290.215589		0.000000
        0.082500		1.200000		0.000000		100000.000000		290.215589		0.000000
        0.087500		1.200000		0.000000		100000.000000		290.215589		0.000000
        0.092500		1.200000		0.000000		100000.000000		290.215589		0.000000
        0.097500		1.200000		0.000000		100000.000000		290.215589		0.000000
        0.102500		1.200000		0.000000		100000.000000		290.215589		0.000000
        0.107500		1.200000		0.000000		100000.000000		290.215589		0.000000
        0.112500		1.200000		0.000000		100000.000000		290.215589		0.000000
        0.117500		1.200000		0.000000		100000.000000		290.215589		0.000000
        0.122500		1.200000		0.000000		100000.000000		290.215589		0.000000
        0.127500		1.200000		0.000000		100000.000000		290.215589		0.000000
        0.132500		1.200000		0.000000		99999.999999		290.215589		0.000000
        0.137500		1.200000		0.000000		99999.999997		290.215589		0.000000
        0.142500		1.200000		0.000000		99999.999994		290.215589		0.000000
        0.147500		1.200000		0.000000		99999.999986		290.215589		0.000000
        0.152500		1.200000		0.000000		99999.999968		290.215589		0.000000
        0.157500		1.200000		0.000000		99999.999930		290.215589		0.000000
        0.162500		1.200000		0.000001		99999.999846		290.215589		0.000000
        0.167500		1.200000		0.000001		99999.999667		290.215589		0.000000
        0.172500		1.200000		0.000002		99999.999290		290.215589		0.000000
        0.177500		1.200000		0.000005		99999.998509		290.215588		0.000000
        0.182500		1.200000		0.000011		99999.996913		290.215588		0.000000
        0.187500		1.200000		0.000021		99999.993695		290.215588		0.000000
        0.192500		1.200000		0.000043		99999.987310		290.215587		0.000000
        0.197500		1.200000		0.000085		99999.974828		290.215585		0.000000
        0.202500		1.199999		0.000166		99999.950802		290.215581		0.000000
        0.207500		1.199999		0.000318		99999.905279		290.215574		0.000001
        0.212500		1.199998		0.000601		99999.820386		290.215561		0.000002
        0.217500		1.199996		0.001118		99999.664625		290.215539		0.000003
        0.222500		1.199993		0.002048		99999.383504		290.215500		0.000006
        0.227500		1.199987		0.003693		99998.884572		290.215433		0.000011
        0.232500		1.199977		0.006553		99998.014054		290.215321		0.000019
        0.237500		1.199960		0.011439		99996.521368		290.215136		0.000033
        0.242500		1.199931		0.019639		99994.006724		290.214837		0.000057
        0.247500		1.199883		0.033153		99989.846105		290.214363		0.000097
        0.252500		1.199805		0.055020		99983.087375		290.213629		0.000161
        0.257500		1.199680		0.089740		99972.311657		290.212516		0.000263
        0.262500		1.199485		0.143826		99955.455940		290.210865		0.000421
        0.267500		1.199185		0.226450		99929.596848		290.208468		0.000663
        0.272500		1.198732		0.350190		99890.702043		290.205065		0.001025
        0.277500		1.198063		0.531810		99833.365028		290.200331		0.001557
        0.282500		1.197096		0.792988		99750.550478		290.193868		0.002322
        0.287500		1.195726		1.160885		99633.389038		290.185183		0.003399
        0.292500		1.193825		1.668417		99471.070077		290.173652		0.004885
        0.297500		1.191245		2.354081		99250.884637		290.158439		0.006893
        0.302500		1.187818		3.261234		98958.465246		290.138385		0.009549
        0.307500		1.183362		4.436760		98578.252031		290.111821		0.012992
        0.312500		1.177695		5.929157		98094.185842		290.076341		0.017363
        0.317500		1.170642		7.786184		97490.592394		290.028521		0.022803
        0.322500		1.162047		10.052256		96753.183557		289.963641		0.029443
        0.327500		1.151791		12.765893		95870.071678		289.875459		0.037397
        0.332500		1.139797		15.957487		94832.678366		289.756091		0.046756
        0.337500		1.126041		19.647638		93636.425857		289.596050		0.057584
        0.342500		1.110554		23.846232		92281.126785		289.384473		0.069915
        0.347500		1.093420		28.552292		90771.031442		289.109536		0.083752
        0.352500		1.074769		33.754580		89114.540972		288.758994		0.099072
        0.357500		1.054770		39.432790		87323.639522		288.320813		0.115826
        0.362500		1.033619		45.559162		85413.129597		287.783794		0.133946
        0.367500		1.011523		52.100304		83399.768178		287.138123		0.153349
        0.372500		0.988698		59.019039		81301.397071		286.375808		0.173945
        0.377500		0.965349		66.276128		79136.143685		285.490960		0.195636
        0.382500		0.941672		73.831773		76921.744161		284.479916		0.218325
        0.387500		0.917841		81.646834		74675.015519		283.341233		0.241920
        0.392500		0.894013		89.683756		72411.481642		282.075560		0.266329
        0.397500		0.870321		97.907215		70145.141893		280.685434		0.291469
        0.402500		0.846878		106.284511		67888.361432		279.175032		0.317262
        0.407500		0.823774		114.785759		65651.858094		277.549900		0.343641
        0.412500		0.801082		123.383918		63444.760587		275.816691		0.370540
        0.417500		0.778861		132.054690		61274.715325		273.982911		0.397905
        0.422500		0.757151		140.776333		59148.023051		272.056709		0.425684
        0.427500		0.735986		149.529412		57069.790716		270.046685		0.453831
        0.432500		0.715385		158.296508		55044.088131		267.961747		0.482305
        0.437500		0.695363		167.061887		53074.102550		265.810998		0.511067
        0.442500		0.675928		175.811155		51162.287306		263.603657		0.540079
        0.447500		0.657083		184.530877		49310.502945		261.349019		0.569306
        0.452500		0.638830		193.208160		47520.150949		259.056447		0.598708
        0.457500		0.621167		201.830194		45792.300960		256.735395		0.628247
        0.462500		0.604095		210.383738		44127.812114		254.395468		0.657877
        0.467500		0.587612		218.854546		42527.447559		252.046501		0.687547
        0.472500		0.571722		227.226762		40991.978454		249.698661		0.717197
        0.477500		0.556429		235.482304		39522.271979		247.362552		0.746755
        0.482500		0.541744		243.600253		38119.363704		245.049316		0.776136
        0.487500		0.527680		251.556080		36784.543407		242.770793		0.805237
        0.492500		0.514260		259.320055		35519.557754		240.539926		0.833930
        0.497500		0.501516		266.853261		34327.155951		238.371878		0.862049
        0.502500		0.489510		274.098946		33212.263755		236.286438		0.889355
        0.507500		0.478348		280.969324		32183.666162		234.311568		0.915480
        0.512500		0.468188		287.338984		31254.518347		232.484877		0.939905
        0.517500		0.459188		293.077237		30437.384996		230.844314		0.962076
        0.522500		0.451337		298.156439		29729.585485		229.398236		0.981830
        0.527500		0.424109		316.695908		27274.531755		223.965882		1.055452
        0.532500		0.398991		334.734814		25059.559333		218.732216		1.128838
        0.537500		0.384756		345.306957		23836.143641		215.750984		1.172508
        0.542500		0.373768		353.650813		22908.442094		213.449689		1.207296
        0.547500		0.364653		360.695714		22150.578749		211.547466		1.236870
        0.552500		0.356978		366.709368		21521.673489		209.959791		1.262237
        0.557500		0.350576		371.775350		21004.477650		208.656310		1.283665
        0.562500		0.345357		375.924496		20589.251228		207.622485		1.301219
        0.567500		0.341242		379.188332		20267.716817		206.844857		1.314981
        0.572500		0.338126		381.626974		20030.178734		206.304029		1.325172
        0.577500		0.335868		383.339879		19864.427910		205.972367		1.332191
        0.582500		0.334292		384.459895		19756.158236		205.815951		1.336591
        0.587500		0.333207		385.134506		19690.483752		205.799757		1.338989
        0.592500		0.332433		385.503127		19653.788493		205.893982		1.339964
        0.597500		0.331819		385.679904		19635.106451		206.079250		1.339975
        0.602500		0.331241		385.746832		19626.617030		206.349555		1.339330
        0.607500		0.330603		385.756076		19623.347758		206.713262		1.338183
        0.612500		0.329822		385.737155		19622.462990		207.193219		1.336567
        0.617500		0.328817		385.704822		19622.508233		207.826957		1.334416
        0.622500		0.327498		385.665325		19622.816030		208.667370		1.331589
        0.627500		0.325760		385.620524		19623.120495		209.783703		1.327887
        0.632500		0.323484		385.570271		19623.341528		211.262380		1.323060
        0.637500		0.320536		385.513686		19623.478506		213.207131		1.316818
        0.642500		0.316777		385.449885		19623.562760		215.737962		1.308855
        0.647500		0.312076		385.378432		19623.637937		218.988651		1.298864
        0.652500		0.306323		385.299675		19623.750192		223.102573		1.286570
        0.657500		0.299448		385.214972		19623.939325		228.226715		1.271765
        0.662500		0.291437		385.126766		19624.229725		234.503734		1.254342
        0.667500		0.282343		385.038421		19624.623637		242.061864		1.234320
        0.672500		0.272293		384.953830		19625.096684		251.002510		1.211872
        0.677500		0.261483		384.876840		19625.599937		261.385543		1.187321
        0.682500		0.250169		384.810595		19626.069003		273.212823		1.161137
        0.687500		0.238646		384.756924		19626.441869		286.411369		1.133909
        0.692500		0.227219		384.716078		19626.672243		300.818761		1.106305
        0.697500		0.216184		384.686838		19626.745097		316.174710		1.079023
        0.702500		0.205802		384.667202		19626.700598		332.123463		1.052743
        0.707500		0.196283		384.656256		19626.716589		348.231337		1.028077
        0.712500		0.187620		384.978860		19603.941930		363.886067		1.006563
        0.717500		0.179523		386.537132		19495.650345		378.199305		0.991329
        0.722500		0.173202		386.804604		19479.390053		391.674257		0.974801
        0.727500		0.168191		386.541646		19497.958048		403.728402		0.959486
        0.732500		0.164177		386.201133		19519.668477		414.058545		0.946607
        0.737500		0.161010		385.862845		19539.219147		422.627309		0.936141
        0.742500		0.158556		385.545056		19555.298378		429.519077		0.927835
        0.747500		0.156692		385.249846		19567.211073		434.893621		0.921378
        0.752500		0.155299		384.968926		19574.204462		438.952587		0.916440
        0.757500		0.154267		384.682661		19575.117264		441.910290		0.912688
        0.762500		0.153495		384.356371		19567.945399		443.969566		0.909797
        0.767500		0.152889		383.933183		19549.183981		445.302986		0.907434
        0.772500		0.152353		383.321314		19512.798798		446.038073		0.905241
        0.777500		0.151781		382.372394		19448.614707		446.243735		0.902791
        0.782500		0.151044		380.845518		19339.827886		445.913887		0.899519
        0.787500		0.149961		378.349053		19159.312252		444.943198		0.894597
        0.792500		0.148272		374.248927		18864.568835		443.089068		0.886752
        0.797500		0.145600		367.530403		18392.001698		439.914644		0.873969
        0.802500		0.141427		356.607258		17653.609454		434.713860		0.853052
        0.807500		0.135111		339.110550		16544.358938		426.442293		0.819027
        0.812500		0.126055		311.816381		14975.655794		413.741502		0.764577
        0.817500		0.114088		271.193164		12949.348959		395.284695		0.680316
        0.822500		0.100029		215.546698		10651.515142		370.841415		0.558257
        0.827500		0.085932		149.374771		8466.749078		343.132416		0.402192
        0.832500		0.074348		86.233195		6798.956833		318.475094		0.241004
        0.837500		0.066763		41.057277		5799.019698		302.497782		0.117738
        0.842500		0.062798		16.864852		5317.379941		294.886905		0.048983
        0.847500		0.061067		6.382003		5118.516501		291.903537		0.018630
        0.852500		0.060391		2.329170		5043.040638		290.818425		0.006812
        0.857500		0.060141		0.837994		5015.457105		290.430568		0.002452
        0.862500		0.060050		0.299845		5005.527045		290.292252		0.000878
        0.867500		0.060018		0.107051		5001.972769		290.242926		0.000313
        0.872500		0.060006		0.038179		5000.703499		290.225334		0.000112
        0.877500		0.060002		0.013607		5000.250712		290.219061		0.000040
        0.882500		0.060001		0.004846		5000.089296		290.216826		0.000014
        0.887500		0.060000		0.001725		5000.031785		290.216029		0.000005
        0.892500		0.060000		0.000614		5000.011306		290.215745		0.000002
        0.897500		0.060000		0.000218		5000.004019		290.215644		0.000001
        0.902500		0.060000		0.000077		5000.001427		290.215608		0.000000
        0.907500		0.060000		0.000027		5000.000506		290.215596		0.000000
        0.912500		0.060000		0.000010		5000.000179		290.215591		0.000000
        0.917500		0.060000		0.000003		5000.000063		290.215590		0.000000
        0.922500		0.060000		0.000001		5000.000022		290.215589		0.000000
        0.927500		0.060000		0.000000		5000.000008		290.215589		0.000000
        0.932500		0.060000		0.000000		5000.000003		290.215589		0.000000
        0.937500		0.060000		0.000000		5000.000001		290.215589		0.000000
        0.942500		0.060000		0.000000		5000.000000		290.215589		0.000000
        0.947500		0.060000		0.000000		5000.000000		290.215589		0.000000
        0.952500		0.060000		0.000000		5000.000000		290.215589		0.000000
        0.957500		0.060000		0.000000		5000.000000		290.215589		0.000000
        0.962500		0.060000		0.000000		5000.000000		290.215589		0.000000
        0.967500		0.060000		0.000000		5000.000000		290.215589		0.000000
        0.972500		0.060000		0.000000		5000.000000		290.215589		0.000000
        0.977500		0.060000		0.000000		5000.000000		290.215589		0.000000
        0.982500		0.060000		0.000000		5000.000000		290.215589		0.000000
        0.987500		0.060000		0.000000		5000.000000		290.215589		0.000000
        0.992500		0.060000		0.000000		5000.000000		290.215589		0.000000
        0.997500		0.060000		0.000000		5000.000000		290.215589		0.000000
