Variables = X,Ro,U,P,T,M
Zone i = 200
        0.002500		1.200000		0.000000		100000.000000		290.215589		0.000000
        0.007500		1.200000		0.000000		100000.000000		290.215589		0.000000
        0.012500		1.200000		0.000000		100000.000000		290.215589		0.000000
        0.017500		1.200000		0.000000		100000.000000		290.215589		0.000000
        0.022500		1.200000		0.000000		100000.000000		290.215589		0.000000
        0.027500		1.200000		0.000000		100000.000000		290.215589		0.000000
        0.032500		1.200000		0.000000		100000.000000		290.215589		0.000000
        0.037500		1.200000		0.000000		100000.000000		290.215589		0.000000
        0.042500		1.200000		0.000000		100000.000000		290.215589		0.000000
        0.047500		1.200000		0.000000		100000.000000		290.215589		0.000000
        0.052500		1.200000		0.000000		100000.000000		290.215589		0.000000
        0.057500		1.200000		0.000000		100000.000000		290.215589		0.000000
        0.062500		1.200000		0.000000		100000.000000		290.215589		0.000000
        0.067500		1.200000		0.000000		100000.000000		290.215589		0.000000
        0.072500		1.200000		0.000000		100000.000000		290.215589		0.000000
        0.077500		1.200000		0.000000		100000.000000		290.215589		0.000000
        0.082500		1.200000		0.000000		100000.000000		290.215589		0.000000
        0.087500		1.200000		0.000000		100000.000000		290.215589		0.000000
        0.092500		1.200000		0.000000		100000.000000		290.215589		0.000000
        0.097500		1.200000		0.000000		100000.000000		290.215589		0.000000
        0.102500		1.200000		0.000000		100000.000000		290.215589		0.000000
        0.107500		1.200000		0.000000		100000.000000		290.215589		0.000000
        0.112500		1.200000		0.000000		100000.000000		290.215589		0.000000
        0.117500		1.200000		0.000000		100000.000000		290.215589		0.000000
        0.122500		1.200000		0.000000		100000.000000		290.215589		0.000000
        0.127500		1.200000		0.000000		100000.000000		290.215589		0.000000
        0.132500		1.200000		0.000000		100000.000000		290.215589		0.000000
        0.137500		1.200000		0.000000		100000.000000		290.215589		0.000000
        0.142500		1.200000		0.000000		100000.000000		290.215589		0.000000
        0.147500		1.200000		0.000000		100000.000000		290.215589		0.000000
        0.152500		1.200000		0.000000		100000.000000		290.215589		0.000000
        0.157500		1.200000		0.000000		100000.000000		290.215589		0.000000
        0.162500		1.200000		0.000000		100000.000000		290.215589		0.000000
        0.167500		1.200000		0.000000		100000.000000		290.215589		0.000000
        0.172500		1.200000		0.000000		100000.000000		290.215589		0.000000
        0.177500		1.200000		0.000000		100000.000000		290.215589		0.000000
        0.182500		1.200000		0.000000		100000.000000		290.215589		0.000000
        0.187500		1.200000		0.000000		100000.000000		290.215589		0.000000
        0.192500		1.200000		0.000000		100000.000000		290.215589		0.000000
        0.197500		1.200000		0.000000		100000.000000		290.215589		0.000000
        0.202500		1.200000		0.000000		100000.000000		290.215589		0.000000
        0.207500		1.200000		0.000000		100000.000000		290.215589		0.000000
        0.212500		1.200000		0.000000		100000.000000		290.215589		0.000000
        0.217500		1.200000		0.000000		100000.000000		290.215589		0.000000
        0.222500		1.200000		0.000000		100000.000000		290.215589		0.000000
        0.227500		1.200000		0.000000		100000.000000		290.215589		0.000000
        0.232500		1.200000		0.000000		100000.000000		290.215589		0.000000
        0.237500		1.200000		0.000000		100000.000000		290.215589		0.000000
        0.242500		1.200000		0.000000		99999.999999		290.215589		0.000000
        0.247500		1.200000		0.000000		99999.999997		290.215589		0.000000
        0.252500		1.200000		0.000000		99999.999990		290.215589		0.000000
        0.257500		1.200000		0.000000		99999.999967		290.215589		0.000000
        0.262500		1.200000		0.000000		99999.999890		290.215589		0.000000
        0.267500		1.200000		0.000001		99999.999639		290.215589		0.000000
        0.272500		1.200000		0.000004		99999.998840		290.215589		0.000000
        0.277500		1.200000		0.000011		99999.996351		290.215589		0.000000
        0.282500		1.200000		0.000035		99999.988776		290.215588		0.000000
        0.287500		1.200000		0.000104		99999.966245		290.215588		0.000000
        0.292500		1.199999		0.000304		99999.900845		290.215586		0.000001
        0.297500		1.199997		0.000868		99999.715787		290.215582		0.000003
        0.302500		1.199991		0.002417		99999.205992		290.215573		0.000007
        0.307500		1.199974		0.006551		99997.840824		290.215555		0.000019
        0.312500		1.199932		0.017257		99994.293540		290.215527		0.000051
        0.317500		1.199825		0.044098		99985.369086		290.215503		0.000129
        0.322500		1.199564		0.109072		99963.688061		290.215555		0.000319
        0.327500		1.198955		0.260441		99912.997284		290.215919		0.000762
        0.332500		1.197587		0.598409		99799.428226		290.217179		0.001752
        0.337500		1.194664		1.317803		99556.974736		290.220325		0.003858
        0.342500		1.188771		2.766897		99067.707629		290.225671		0.008101
        0.347500		1.177723		5.492474		98147.676156		290.227668		0.016080
        0.352500		1.159020		10.152812		96580.190011		290.201083		0.029725
        0.357500		1.131533		17.142114		94250.759709		290.081266		0.050199
        0.362500		1.097019		26.212535		91277.820604		289.769666		0.076801
        0.367500		1.058913		36.667821		87929.815245		289.186263		0.107543
        0.372500		1.020095		47.836517		84448.740151		288.306638		0.140514
        0.377500		0.982194		59.276536		80984.235266		287.147478		0.174469
        0.382500		0.945937		70.744193		77612.647812		285.740731		0.208733
        0.387500		0.911567		82.115520		74368.340310		284.119937		0.242975
        0.392500		0.879101		93.330283		71264.247665		282.315773		0.277040
        0.397500		0.848460		104.361131		68302.736615		280.355207		0.310865
        0.402500		0.819528		115.197825		65481.013110		278.261697		0.344433
        0.407500		0.792177		125.839197		62793.820900		276.055628		0.377750
        0.412500		0.766281		136.288940		60234.819138		273.754745		0.410834
        0.417500		0.741721		146.553337		57797.300462		271.374547		0.443709
        0.422500		0.718388		156.639999		55474.567329		268.928619		0.476399
        0.427500		0.696182		166.557167		53260.124766		266.428907		0.508932
        0.432500		0.675013		176.313334		51147.771735		263.885943		0.541332
        0.437500		0.654800		185.917055		49131.635645		261.309031		0.573626
        0.442500		0.635468		195.376873		47206.175202		258.706385		0.605838
        0.447500		0.616949		204.701321		45366.166422		256.085252		0.637992
        0.452500		0.599183		213.898961		43606.680923		253.452003		0.670113
        0.457500		0.582112		222.978440		41923.062244		250.812209		0.702224
        0.462500		0.565684		231.948557		40310.903876		248.170709		0.734350
        0.467500		0.549852		240.818313		38766.031188		245.531672		0.766519
        0.472500		0.534571		249.596943		37284.488426		242.898661		0.798755
        0.477500		0.519798		258.293920		35862.530969		240.274699		0.831088
        0.482500		0.505497		266.918940		34496.622460		237.662337		0.863547
        0.487500		0.491629		275.481868		33183.434751		235.063735		0.896163
        0.492500		0.478163		283.992676		31919.851935		232.480744		0.928968
        0.497500		0.465067		292.461324		30702.968133		229.914963		0.961993
        0.502500		0.452312		300.897664		29530.128201		227.367974		0.995271
        0.507500		0.439873		309.310559		28398.879825		224.841021		1.028831
        0.512500		0.427796		317.661150		27313.191128		222.350061		1.062509
        0.517500		0.416084		325.938029		26272.924727		219.902065		1.096244
        0.522500		0.404737		334.130422		25277.671208		217.503532		1.129978
        0.527500		0.393757		342.225767		24327.130973		215.161444		1.163637
        0.532500		0.383162		350.206762		23421.742520		212.882070		1.197132
        0.537500		0.372976		358.027123		22562.450175		210.672219		1.230267
        0.542500		0.363262		365.628588		21757.333524		208.586980		1.262652
        0.547500		0.354335		372.818048		21026.637635		206.660685		1.293466
        0.552500		0.346817		378.758250		20390.530274		204.753171		1.320182
        0.557500		0.341581		383.378087		19989.943614		203.807067		1.339383
        0.562500		0.338325		385.976973		19785.560519		203.665019		1.348932
        0.567500		0.337087		386.482857		19646.355115		202.974890		1.352995
        0.572500		0.337053		386.744791		19619.822984		202.721304		1.354758
        0.577500		0.337251		386.769338		19625.009480		202.655349		1.355065
        0.582500		0.337674		386.682549		19645.738710		202.615611		1.354893
        0.587500		0.338020		386.524756		19682.135255		202.783161		1.353781
        0.592500		0.338065		386.437203		19712.238103		203.066170		1.352531
        0.597500		0.337999		386.302669		19713.318636		203.117168		1.351890
        0.602500		0.337841		386.264056		19704.169250		203.117835		1.351753
        0.607500		0.337815		386.285502		19687.803073		202.964380		1.352339
        0.612500		0.337828		386.361776		19665.395510		202.725704		1.353402
        0.617500		0.337840		386.468589		19647.166415		202.530440		1.354428
        0.622500		0.337879		386.639450		19646.626294		202.501747		1.355123
        0.627500		0.337976		386.748312		19653.969650		202.519557		1.355445
        0.632500		0.338050		386.761979		19662.975630		202.567810		1.355331
        0.637500		0.338149		386.733586		19671.888195		202.600045		1.355124
        0.642500		0.338320		386.646063		19674.460115		202.524271		1.355071
        0.647500		0.338477		386.532503		19671.079819		202.395311		1.355104
        0.652500		0.338449		386.444516		19664.764726		202.347325		1.354957
        0.657500		0.338253		386.426033		19663.544557		202.452229		1.354541
        0.662500		0.337558		386.419391		19665.590059		202.889968		1.353055
        0.667500		0.335629		386.404371		19671.350240		204.115769		1.348934
        0.672500		0.331100		386.366937		19679.565109		206.994392		1.339392
        0.677500		0.321839		386.274683		19686.850207		213.029559		1.319968
        0.682500		0.305043		386.079183		19689.876962		224.793321		1.284315
        0.687500		0.277865		385.783711		19688.373273		246.762254		1.224874
        0.692500		0.239557		385.487932		19683.099033		286.144994		1.136592
        0.697500		0.197803		385.619280		19668.075221		346.283341		1.033546
        0.702500		0.169833		386.482130		19603.254285		401.984043		0.961417
        0.707500		0.157701		386.013971		19632.841760		433.560631		0.924624
        0.712500		0.152820		385.539348		19654.293101		447.898470		0.908586
        0.717500		0.151219		385.349269		19668.989178		452.978760		0.903031
        0.722500		0.150868		385.344361		19682.614429		454.346878		0.901659
        0.727500		0.150860		385.395672		19690.523611		454.554447		0.901573
        0.732500		0.150980		385.439203		19694.055454		454.274586		0.901952
        0.737500		0.151309		385.448526		19694.066821		453.285090		0.902958
        0.742500		0.151877		385.430434		19693.511824		451.579011		0.904620
        0.747500		0.152466		385.395414		19690.203549		449.758147		0.906367
        0.752500		0.152795		385.336254		19682.569528		448.615244		0.907381
        0.757500		0.152922		385.235839		19673.254667		448.029796		0.907737
        0.762500		0.152972		385.173406		19667.951426		447.763133		0.907860
        0.767500		0.152994		385.168062		19666.697510		447.671969		0.907940
        0.772500		0.152997		385.187212		19666.875595		447.666181		0.907991
        0.777500		0.152995		385.240754		19669.468959		447.730708		0.908052
        0.782500		0.152996		385.343247		19675.503783		447.865857		0.908157
        0.787500		0.152971		385.384184		19676.732263		447.967583		0.908150
        0.792500		0.152883		385.336167		19672.302310		448.123535		0.907879
        0.797500		0.152662		384.994272		19646.853695		448.190753		0.907005
        0.802500		0.151972		383.473390		19534.961507		447.663811		0.903954
        0.807500		0.149437		377.292529		19087.234643		444.821544		0.892221
        0.812500		0.140162		352.905402		17439.757241		433.324832		0.845548
        0.817500		0.112650		264.165626		12773.422516		394.892648		0.663016
        0.822500		0.074142		88.524026		6852.166034		321.860977		0.246101
        0.827500		0.061916		11.808078		5224.600575		293.865889		0.034355
        0.832500		0.060247		1.484333		5027.599082		290.621330		0.004343
        0.837500		0.060031		0.182163		5003.364909		290.263111		0.000533
        0.842500		0.060004		0.022281		5000.410742		290.221315		0.000065
        0.847500		0.060000		0.002723		5000.050163		290.216285		0.000008
        0.852500		0.060000		0.000333		5000.006128		290.215674		0.000001
        0.857500		0.060000		0.000041		5000.000749		290.215599		0.000000
        0.862500		0.060000		0.000005		5000.000092		290.215590		0.000000
        0.867500		0.060000		0.000001		5000.000011		290.215589		0.000000
        0.872500		0.060000		0.000000		5000.000001		290.215589		0.000000
        0.877500		0.060000		0.000000		5000.000000		290.215589		0.000000
        0.882500		0.060000		0.000000		5000.000000		290.215589		0.000000
        0.887500		0.060000		0.000000		5000.000000		290.215589		0.000000
        0.892500		0.060000		0.000000		5000.000000		290.215589		0.000000
        0.897500		0.060000		0.000000		5000.000000		290.215589		0.000000
        0.902500		0.060000		0.000000		5000.000000		290.215589		0.000000
        0.907500		0.060000		0.000000		5000.000000		290.215589		0.000000
        0.912500		0.060000		0.000000		5000.000000		290.215589		0.000000
        0.917500		0.060000		0.000000		5000.000000		290.215589		0.000000
        0.922500		0.060000		0.000000		5000.000000		290.215589		0.000000
        0.927500		0.060000		0.000000		5000.000000		290.215589		0.000000
        0.932500		0.060000		0.000000		5000.000000		290.215589		0.000000
        0.937500		0.060000		0.000000		5000.000000		290.215589		0.000000
        0.942500		0.060000		0.000000		5000.000000		290.215589		0.000000
        0.947500		0.060000		0.000000		5000.000000		290.215589		0.000000
        0.952500		0.060000		0.000000		5000.000000		290.215589		0.000000
        0.957500		0.060000		0.000000		5000.000000		290.215589		0.000000
        0.962500		0.060000		0.000000		5000.000000		290.215589		0.000000
        0.967500		0.060000		0.000000		5000.000000		290.215589		0.000000
        0.972500		0.060000		0.000000		5000.000000		290.215589		0.000000
        0.977500		0.060000		0.000000		5000.000000		290.215589		0.000000
        0.982500		0.060000		0.000000		5000.000000		290.215589		0.000000
        0.987500		0.060000		0.000000		5000.000000		290.215589		0.000000
        0.992500		0.060000		0.000000		5000.000000		290.215589		0.000000
        0.997500		0.060000		0.000000		5000.000000		290.215589		0.000000
