 VARIABLES = "X", "RHO", "U", "P", "T", "M", "RHO_AN", "U_AN", "P_AN"
 ZONE I=         200
         0.0025000         0.9913574        -1.9935301         0.3951811         0.0013889         2.6685529         1.0000000        -2.0000000         0.4000000
         0.0075000         0.9892369        -1.9919405         0.3940042         0.0013878         2.6675470         1.0000000        -2.0000000         0.4000000
         0.0125000         0.9867077        -1.9900428         0.3926029         0.0013864         2.6663423         1.0000000        -2.0000000         0.4000000
         0.0175000         0.9837189        -1.9877979         0.3909504         0.0013847         2.6649120         1.0000000        -2.0000000         0.4000000
         0.0225000         0.9802193        -1.9851659         0.3890201         0.0013828         2.6632282         1.0000000        -2.0000000         0.4000000
         0.0275000         0.9761583        -1.9821065         0.3867862         0.0013806         2.6612621         1.0000000        -2.0000000         0.4000000
         0.0325000         0.9714873        -1.9785803         0.3842243         0.0013781         2.6589846         1.0000000        -2.0000000         0.4000000
         0.0375000         0.9661606        -1.9745492         0.3813126         0.0013751         2.6563665         1.0000000        -2.0000000         0.4000000
         0.0425000         0.9601366        -1.9699771         0.3780321         0.0013719         2.6533792         1.0000000        -2.0000000         0.4000000
         0.0475000         0.9533792        -1.9648306         0.3743674         0.0013682         2.6499944         1.0000000        -2.0000000         0.4000000
         0.0525000         0.9458583        -1.9590796         0.3703068         0.0013641         2.6461851         1.0000000        -2.0000000         0.4000000
         0.0575000         0.9375505        -1.9526974         0.3658435         0.0013596         2.6419255         1.0000000        -2.0000000         0.4000000
         0.0625000         0.9284398        -1.9456615         0.3609750         0.0013547         2.6371912         1.0000000        -2.0000000         0.4000000
         0.0675000         0.9185179        -1.9379535         0.3557034         0.0013493         2.6319593         1.0000000        -2.0000000         0.4000000
         0.0725000         0.9077842        -1.9295590         0.3500356         0.0013435         2.6262086         1.0000000        -2.0000000         0.4000000
         0.0775000         0.8962456        -1.9204679         0.3439831         0.0013373         2.6199197         1.0000000        -2.0000000         0.4000000
         0.0825000         0.8839162        -1.9106740         0.3375613         0.0013306         2.6130744         1.0000000        -2.0000000         0.4000000
         0.0875000         0.8708171        -1.9001749         0.3307896         0.0013236         2.6056564         1.0000000        -2.0000000         0.4000000
         0.0925000         0.8569755        -1.8889716         0.3236904         0.0013161         2.5976503         1.0000000        -2.0000000         0.4000000
         0.0975000         0.8424241        -1.8770682         0.3162893         0.0013082         2.5890423         1.0000000        -2.0000000         0.4000000
         0.1025000         0.8272004        -1.8644716         0.3086140         0.0012999         2.5798193         1.0000000        -2.0000000         0.4000000
         0.1075000         0.8113461        -1.8511910         0.3006940         0.0012913         2.5699691         1.0000000        -2.0000000         0.4000000
         0.1125000         0.7949061        -1.8372377         0.2925600         0.0012824         2.5594800         1.0000000        -2.0000000         0.4000000
         0.1175000         0.7779278        -1.8226245         0.2842435         0.0012731         2.5483409         1.0000000        -2.0000000         0.4000000
         0.1225000         0.7604605        -1.8073655         0.2757763         0.0012636         2.5365407         1.0000000        -2.0000000         0.4000000
         0.1275000         0.7425548        -1.7914759         0.2671899         0.0012537         2.5240686         1.0000000        -2.0000000         0.4000000
         0.1325000         0.7242619        -1.7749712         0.2585156         0.0012437         2.5109136         1.0000000        -2.0000000         0.4000000
         0.1375000         0.7056333        -1.7578678         0.2497836         0.0012334         2.4970644         1.0000000        -2.0000000         0.4000000
         0.1425000         0.6867200        -1.7401817         0.2410233         0.0012229         2.4825096         1.0000000        -2.0000000         0.4000000
         0.1475000         0.6675726        -1.7219294         0.2322626         0.0012123         2.4672375         1.0000000        -2.0000000         0.4000000
         0.1525000         0.6482405        -1.7031268         0.2235280         0.0012015         2.4512357         1.0000000        -2.0000000         0.4000000
         0.1575000         0.6287721        -1.6837896         0.2148445         0.0011906         2.4344917         1.0000000        -2.0000000         0.4000000
         0.1625000         0.6092144        -1.6639331         0.2062354         0.0011795         2.4169924         1.0000000        -2.0000000         0.4000000
         0.1675000         0.5896128        -1.6435720         0.1977223         0.0011684         2.3987243         1.0000000        -2.0000000         0.4000000
         0.1725000         0.5700110        -1.6227204         0.1893250         0.0011573         2.3796736         1.0000000        -2.0000000         0.4000000
         0.1775000         0.5504511        -1.6013918         0.1810614         0.0011461         2.3598260         1.0000000        -2.0000000         0.4000000
         0.1825000         0.5309732        -1.5795989         0.1729481         0.0011349         2.3391672         1.0000000        -2.0000000         0.4000000
         0.1875000         0.5116158        -1.5573537         0.1649995         0.0011237         2.3176826         1.0000000        -2.0000000         0.4000000
         0.1925000         0.4924152        -1.5346677         0.1572286         0.0011125         2.2953574         1.0000000        -2.0000000         0.4000000
         0.1975000         0.4734061        -1.5115514         0.1496468         0.0011014         2.2721769         1.0000000        -2.0000000         0.4000000
         0.2025000         0.4546213        -1.4880147         0.1422639         0.0010903         2.2481264         1.0000000        -2.0000000         0.4000000
         0.2075000         0.4360913        -1.4640670         0.1350882         0.0010793         2.2231915         1.0000000        -2.0000000         0.4000000
         0.2125000         0.4178452        -1.4397168         0.1281268         0.0010684         2.1973580         1.0000000        -2.0000000         0.4000000
         0.2175000         0.3999098        -1.4149720         0.1213851         0.0010576         2.1706119         1.0000000        -2.0000000         0.4000000
         0.2225000         0.3823101        -1.3898400         0.1148676         0.0010469         2.1429398         1.0000000        -2.0000000         0.4000000
         0.2275000         0.3650692        -1.3643277         0.1085774         0.0010363         2.1143288         1.0000000        -2.0000000         0.4000000
         0.2325000         0.3482081        -1.3384412         0.1025167         0.0010258         2.0847665         1.0000000        -2.0000000         0.4000000
         0.2375000         0.3317460        -1.3121864         0.0966865         0.0010155         2.0542412         1.0000000        -2.0000000         0.4000000
         0.2425000         0.3157001        -1.2855684         0.0910869         0.0010053         2.0227419         1.0000000        -2.0000000         0.4000000
         0.2475000         0.3000856        -1.2585923         0.0857173         0.0009953         1.9902583         1.0000000        -2.0000000         0.4000000
         0.2525000         0.2849158        -1.2312623         0.0805759         0.0009854         1.9567808         1.0000000        -2.0000000         0.4000000
         0.2575000         0.2702021        -1.2035826         0.0756606         0.0009757         1.9223010         1.0000000        -2.0000000         0.4000000
         0.2625000         0.2559540        -1.1755571         0.0709683         0.0009661         1.8868107         1.0000000        -2.0000000         0.4000000
         0.2675000         0.2421789        -1.1471890         0.0664955         0.0009567         1.8503032         1.0000000        -2.0000000         0.4000000
         0.2725000         0.2288827        -1.1184817         0.0622381         0.0009475         1.8127721         1.0000000        -2.0000000         0.4000000
         0.2775000         0.2160691        -1.0894380         0.0581914         0.0009384         1.7742121         1.0000000        -2.0000000         0.4000000
         0.2825000         0.2037404        -1.0600608         0.0543504         0.0009295         1.7346187         1.0000000        -2.0000000         0.4000000
         0.2875000         0.1918970        -1.0303525         0.0507097         0.0009207         1.6939882         1.0000000        -2.0000000         0.4000000
         0.2925000         0.1805376        -1.0003156         0.0472636         0.0009122         1.6523174         1.0000000        -2.0000000         0.4000000
         0.2975000         0.1696596        -0.9699523         0.0440061         0.0009038         1.6096043         1.0000000        -2.0000000         0.4000000
         0.3025000         0.1592586        -0.9392649         0.0409310         0.0008955         1.5658471         1.0000000        -2.0000000         0.4000000
         0.3075000         0.1493291        -0.9082554         0.0380319         0.0008874         1.5210450         1.0000000        -2.0000000         0.4000000
         0.3125000         0.1398641        -0.8769258         0.0353024         0.0008795         1.4751977         1.0000000        -2.0000000         0.4000000
         0.3175000         0.1308557        -0.8452783         0.0327357         0.0008717         1.4283053         1.0000000        -2.0000000         0.4000000
         0.3225000         0.1222945        -0.8133149         0.0303254         0.0008640         1.3803687         1.0000000        -2.0000000         0.4000000
         0.3275000         0.1141706        -0.7810377         0.0280647         0.0008565         1.3313892         1.0000000        -2.0000000         0.4000000
         0.3325000         0.1064728        -0.7484489         0.0259470         0.0008491         1.2813685         1.0000000        -2.0000000         0.4000000
         0.3375000         0.0991895        -0.7155509         0.0239657         0.0008419         1.2303089         1.0000000        -2.0000000         0.4000000
         0.3425000         0.0923082        -0.6823464         0.0221144         0.0008347         1.1782131         1.0000000        -2.0000000         0.4000000
         0.3475000         0.0858161        -0.6488382         0.0203865         0.0008277         1.1250845         1.0000000        -2.0000000         0.4000000
         0.3525000         0.0796998        -0.6150297         0.0187759         0.0008208         1.0709269         1.0000000        -2.0000000         0.4000000
         0.3575000         0.0739457        -0.5809241         0.0172765         0.0008141         1.0157436         1.0000000        -2.0000000         0.4000000
         0.3625000         0.0685402        -0.5465242         0.0158823         0.0008074         0.9595368         1.0000000        -2.0000000         0.4000000
         0.3675000         0.0634690        -0.5118379         0.0145874         0.0008008         0.9023182         1.0000000        -2.0000000         0.4000000
         0.3725000         0.0587180        -0.4768730         0.0133864         0.0007943         0.8440984         1.0000000        -2.0000000         0.4000000
         0.3775000         0.0542733        -0.4416395         0.0122737         0.0007880         0.7848917         1.0000000        -2.0000000         0.4000000
         0.3825000         0.0501212        -0.4061508         0.0112443         0.0007817         0.7247175         1.0000000        -2.0000000         0.4000000
         0.3875000         0.0462483        -0.3704250         0.0102932         0.0007755         0.6636035         1.0000000        -2.0000000         0.4000000
         0.3925000         0.0426415        -0.3344871         0.0094159         0.0007694         0.6015892         1.0000000        -2.0000000         0.4000000
         0.3975000         0.0392885        -0.2983724         0.0086081         0.0007634         0.5387326         1.0000000        -2.0000000         0.4000000
         0.4025000         0.0361776        -0.2621319         0.0078658         0.0007576         0.4751206         1.0000000        -2.0000000         0.4000000
         0.4075000         0.0332982        -0.2258405         0.0071855         0.0007519         0.4108852         1.0000000        -2.0000000         0.4000000
         0.4125000         0.0306412        -0.1896112         0.0065641         0.0007464         0.3462308         1.0000000        -2.0000000         0.4000000
         0.4175000         0.0281995        -0.1536173         0.0059993         0.0007413         0.2814793         1.0000000        -2.0000000         0.4000000
         0.4225000         0.0259692        -0.1181301         0.0054898         0.0007366         0.2171443         1.0000000        -2.0000000         0.4000000
         0.4275000         0.0239502        -0.0835784         0.0050354         0.0007326         0.1540525         1.0000000        -2.0000000         0.4000000
         0.4325000         0.0221489        -0.0506411         0.0046379         0.0007296         0.0935305         1.0000000        -2.0000000         0.4000000
         0.4375000         0.0205787        -0.0203709         0.0043018         0.0007284         0.0376559         1.0000000        -2.0000000         0.4000000
         0.4425000         0.0192480         0.0056965         0.0040342         0.0007303         0.0105162         1.0000000        -2.0000000         0.4000000
         0.4475000         0.0181927         0.0256237         0.0038445         0.0007363         0.0471091         1.0000000        -2.0000000         0.4000000
         0.4525000         0.0174301         0.0375928         0.0037401         0.0007477         0.0685882         1.0000000        -2.0000000         0.4000000
         0.4575000         0.0169248         0.0410589         0.0037179         0.0007654         0.0740385         1.0000000        -2.0000000         0.4000000
         0.4625000         0.0165823         0.0376740         0.0037584         0.0007897         0.0668805         1.0000000        -2.0000000         0.4000000
         0.4675000         0.0162722         0.0306957         0.0038301         0.0008201         0.0534728         1.0000000        -2.0000000         0.4000000
         0.4725000         0.0158802         0.0231732         0.0039039         0.0008566         0.0395004         1.0000000        -2.0000000         0.4000000
         0.4775000         0.0153349         0.0167245         0.0039639         0.0009006         0.0278016         1.0000000        -2.0000000         0.4000000
         0.4825000         0.0145931         0.0116537         0.0040064         0.0009566         0.0187972         1.0000000        -2.0000000         0.4000000
         0.4875000         0.0135998         0.0076559         0.0040340         0.0010335         0.0118804         1.0000000        -2.0000000         0.4000000
         0.4925000         0.0122262         0.0043345         0.0040500         0.0011542         0.0063649         1.0000000        -2.0000000         0.4000000
         0.4975000         0.0100716         0.0013914         0.0040576         0.0014038         0.0018527         1.0000000        -2.0000000         0.4000000
         0.5025000         0.0100716        -0.0013914         0.0040576         0.0014038         0.0018527         1.0000000        -2.0000000         0.4000000
         0.5075000         0.0122262        -0.0043345         0.0040500         0.0011542         0.0063649         1.0000000        -2.0000000         0.4000000
         0.5125000         0.0135998        -0.0076559         0.0040340         0.0010335         0.0118804         1.0000000        -2.0000000         0.4000000
         0.5175000         0.0145931        -0.0116537         0.0040064         0.0009566         0.0187972         1.0000000        -2.0000000         0.4000000
         0.5225000         0.0153349        -0.0167245         0.0039639         0.0009006         0.0278016         1.0000000        -2.0000000         0.4000000
         0.5275000         0.0158802        -0.0231732         0.0039039         0.0008566         0.0395004         1.0000000        -2.0000000         0.4000000
         0.5325000         0.0162722        -0.0306957         0.0038301         0.0008201         0.0534728         1.0000000        -2.0000000         0.4000000
         0.5375000         0.0165823        -0.0376740         0.0037584         0.0007897         0.0668805         1.0000000        -2.0000000         0.4000000
         0.5425000         0.0169248        -0.0410589         0.0037179         0.0007654         0.0740385         1.0000000        -2.0000000         0.4000000
         0.5475000         0.0174301        -0.0375928         0.0037401         0.0007477         0.0685882         1.0000000        -2.0000000         0.4000000
         0.5525000         0.0181927        -0.0256237         0.0038445         0.0007363         0.0471091         1.0000000        -2.0000000         0.4000000
         0.5575000         0.0192480        -0.0056965         0.0040342         0.0007303         0.0105162         1.0000000        -2.0000000         0.4000000
         0.5625000         0.0205787         0.0203709         0.0043018         0.0007284         0.0376559         1.0000000        -2.0000000         0.4000000
         0.5675000         0.0221489         0.0506411         0.0046379         0.0007296         0.0935305         1.0000000        -2.0000000         0.4000000
         0.5725000         0.0239502         0.0835784         0.0050354         0.0007326         0.1540525         1.0000000        -2.0000000         0.4000000
         0.5775000         0.0259692         0.1181301         0.0054898         0.0007366         0.2171443         1.0000000        -2.0000000         0.4000000
         0.5825000         0.0281995         0.1536173         0.0059993         0.0007413         0.2814793         1.0000000        -2.0000000         0.4000000
         0.5875000         0.0306412         0.1896112         0.0065641         0.0007464         0.3462308         1.0000000        -2.0000000         0.4000000
         0.5925000         0.0332982         0.2258405         0.0071855         0.0007519         0.4108852         1.0000000        -2.0000000         0.4000000
         0.5975000         0.0361776         0.2621319         0.0078658         0.0007576         0.4751206         1.0000000        -2.0000000         0.4000000
         0.6025000         0.0392885         0.2983724         0.0086081         0.0007634         0.5387326         1.0000000        -2.0000000         0.4000000
         0.6075000         0.0426415         0.3344871         0.0094159         0.0007694         0.6015892         1.0000000        -2.0000000         0.4000000
         0.6125000         0.0462483         0.3704250         0.0102932         0.0007755         0.6636035         1.0000000        -2.0000000         0.4000000
         0.6175000         0.0501212         0.4061508         0.0112443         0.0007817         0.7247175         1.0000000        -2.0000000         0.4000000
         0.6225000         0.0542733         0.4416395         0.0122737         0.0007880         0.7848917        14.2823500         8.6897744      1691.6469402
         0.6275000         0.0587180         0.4768730         0.0133864         0.0007943         0.8440984        14.2823500         8.6897744      1691.6469402
         0.6325000         0.0634690         0.5118379         0.0145874         0.0008008         0.9023182        14.2823500         8.6897744      1691.6469402
         0.6375000         0.0685402         0.5465242         0.0158823         0.0008074         0.9595368        14.2823500         8.6897744      1691.6469402
         0.6425000         0.0739457         0.5809241         0.0172765         0.0008141         1.0157436        14.2823500         8.6897744      1691.6469402
         0.6475000         0.0796998         0.6150297         0.0187759         0.0008208         1.0709269        14.2823500         8.6897744      1691.6469402
         0.6525000         0.0858161         0.6488382         0.0203865         0.0008277         1.1250845        14.2823500         8.6897744      1691.6469402
         0.6575000         0.0923082         0.6823464         0.0221144         0.0008347         1.1782131        14.2823500         8.6897744      1691.6469402
         0.6625000         0.0991895         0.7155509         0.0239657         0.0008419         1.2303089        14.2823500         8.6897744      1691.6469402
         0.6675000         0.1064728         0.7484489         0.0259470         0.0008491         1.2813685        14.2823500         8.6897744      1691.6469402
         0.6725000         0.1141706         0.7810377         0.0280647         0.0008565         1.3313892        14.2823500         8.6897744      1691.6469402
         0.6775000         0.1222945         0.8133149         0.0303254         0.0008640         1.3803687        14.2823500         8.6897744      1691.6469402
         0.6825000         0.1308557         0.8452783         0.0327357         0.0008717         1.4283053        14.2823500         8.6897744      1691.6469402
         0.6875000         0.1398641         0.8769258         0.0353024         0.0008795         1.4751977        14.2823500         8.6897744      1691.6469402
         0.6925000         0.1493291         0.9082554         0.0380319         0.0008874         1.5210450        14.2823500         8.6897744      1691.6469402
         0.6975000         0.1592586         0.9392649         0.0409310         0.0008955         1.5658471        14.2823500         8.6897744      1691.6469402
         0.7025000         0.1696596         0.9699523         0.0440061         0.0009038         1.6096043        14.2823500         8.6897744      1691.6469402
         0.7075000         0.1805376         1.0003156         0.0472636         0.0009122         1.6523174        14.2823500         8.6897744      1691.6469402
         0.7125000         0.1918970         1.0303525         0.0507097         0.0009207         1.6939882        14.2823500         8.6897744      1691.6469402
         0.7175000         0.2037404         1.0600608         0.0543504         0.0009295         1.7346187        14.2823500         8.6897744      1691.6469402
         0.7225000         0.2160691         1.0894380         0.0581914         0.0009384         1.7742121        14.2823500         8.6897744      1691.6469402
         0.7275000         0.2288827         1.1184817         0.0622381         0.0009475         1.8127721        14.2823500         8.6897744      1691.6469402
         0.7325000         0.2421789         1.1471890         0.0664955         0.0009567         1.8503032        14.2823500         8.6897744      1691.6469402
         0.7375000         0.2559540         1.1755571         0.0709683         0.0009661         1.8868107        14.2823500         8.6897744      1691.6469402
         0.7425000         0.2702021         1.2035826         0.0756606         0.0009757         1.9223010        14.2823500         8.6897744      1691.6469402
         0.7475000         0.2849158         1.2312623         0.0805759         0.0009854         1.9567808        14.2823500         8.6897744      1691.6469402
         0.7525000         0.3000856         1.2585923         0.0857173         0.0009953         1.9902583        14.2823500         8.6897744      1691.6469402
         0.7575000         0.3157001         1.2855684         0.0910869         0.0010053         2.0227419        14.2823500         8.6897744      1691.6469402
         0.7625000         0.3317460         1.3121864         0.0966865         0.0010155         2.0542412        14.2823500         8.6897744      1691.6469402
         0.7675000         0.3482081         1.3384412         0.1025167         0.0010258         2.0847665        14.2823500         8.6897744      1691.6469402
         0.7725000         0.3650692         1.3643277         0.1085774         0.0010363         2.1143288        14.2823500         8.6897744      1691.6469402
         0.7775000         0.3823101         1.3898400         0.1148676         0.0010469         2.1429398        14.2823500         8.6897744      1691.6469402
         0.7825000         0.3999098         1.4149720         0.1213851         0.0010576         2.1706119        14.2823500         8.6897744      1691.6469402
         0.7875000         0.4178452         1.4397168         0.1281268         0.0010684         2.1973580        14.2823500         8.6897744      1691.6469402
         0.7925000         0.4360913         1.4640670         0.1350882         0.0010793         2.2231915        14.2823500         8.6897744      1691.6469402
         0.7975000         0.4546213         1.4880147         0.1422639         0.0010903         2.2481264        14.2823500         8.6897744      1691.6469402
         0.8025000         0.4734061         1.5115514         0.1496468         0.0011014         2.2721769        14.2823500         8.6897744      1691.6469402
         0.8075000         0.4924152         1.5346677         0.1572286         0.0011125         2.2953574        14.2823500         8.6897744      1691.6469402
         0.8125000         0.5116158         1.5573537         0.1649995         0.0011237         2.3176826        14.2823500         8.6897744      1691.6469402
         0.8175000         0.5309732         1.5795989         0.1729481         0.0011349         2.3391672        14.2823500         8.6897744      1691.6469402
         0.8225000         0.5504511         1.6013918         0.1810614         0.0011461         2.3598260        14.2823500         8.6897744      1691.6469402
         0.8275000         0.5700110         1.6227204         0.1893250         0.0011573         2.3796736        14.2823500         8.6897744      1691.6469402
         0.8325000         0.5896128         1.6435720         0.1977223         0.0011684         2.3987243        14.2823500         8.6897744      1691.6469402
         0.8375000         0.6092144         1.6639331         0.2062354         0.0011795         2.4169924        14.2823500         8.6897744      1691.6469402
         0.8425000         0.6287721         1.6837896         0.2148445         0.0011906         2.4344917        14.2823500         8.6897744      1691.6469402
         0.8475000         0.6482405         1.7031268         0.2235280         0.0012015         2.4512357        14.2823500         8.6897744      1691.6469402
         0.8525000         0.6675726         1.7219294         0.2322626         0.0012123         2.4672375        14.2823500         8.6897744      1691.6469402
         0.8575000         0.6867200         1.7401817         0.2410233         0.0012229         2.4825096        14.2823500         8.6897744      1691.6469402
         0.8625000         0.7056333         1.7578678         0.2497836         0.0012334         2.4970644        14.2823500         8.6897744      1691.6469402
         0.8675000         0.7242619         1.7749712         0.2585156         0.0012437         2.5109136        14.2823500         8.6897744      1691.6469402
         0.8725000         0.7425548         1.7914759         0.2671899         0.0012537         2.5240686        14.2823500         8.6897744      1691.6469402
         0.8775000         0.7604605         1.8073655         0.2757763         0.0012636         2.5365407        14.2823500         8.6897744      1691.6469402
         0.8825000         0.7779278         1.8226245         0.2842435         0.0012731         2.5483409        14.2823500         8.6897744      1691.6469402
         0.8875000         0.7949061         1.8372377         0.2925600         0.0012824         2.5594800        14.2823500         8.6897744      1691.6469402
         0.8925000         0.8113461         1.8511910         0.3006940         0.0012913         2.5699691        14.2823500         8.6897744      1691.6469402
         0.8975000         0.8272004         1.8644716         0.3086140         0.0012999         2.5798193        14.2823500         8.6897744      1691.6469402
         0.9025000         0.8424241         1.8770682         0.3162893         0.0013082         2.5890423        14.2823500         8.6897744      1691.6469402
         0.9075000         0.8569755         1.8889716         0.3236904         0.0013161         2.5976503        14.2823500         8.6897744      1691.6469402
         0.9125000         0.8708171         1.9001749         0.3307896         0.0013236         2.6056564        14.2823500         8.6897744      1691.6469402