 VARIABLES = "X", "RHO", "U", "P", "T", "M", "RHO_AN", "U_AN", "P_AN"
 ZONE I=         200
         0.0025000         0.9999998        -1.9999999         0.3999999         0.0013937         2.6726123         1.0000000        -2.0000000         0.4000000
         0.0075000         0.9999997        -1.9999997         0.3999998         0.0013937         2.6726123         1.0000000        -2.0000000         0.4000000
         0.0125000         0.9999991        -1.9999993         0.3999995         0.0013937         2.6726120         1.0000000        -2.0000000         0.4000000
         0.0175000         0.9999979        -1.9999985         0.3999988         0.0013937         2.6726115         1.0000000        -2.0000000         0.4000000
         0.0225000         0.9999951        -1.9999964         0.3999973         0.0013937         2.6726102         1.0000000        -2.0000000         0.4000000
         0.0275000         0.9999888        -1.9999916         0.3999937         0.0013937         2.6726072         1.0000000        -2.0000000         0.4000000
         0.0325000         0.9999745        -1.9999809         0.3999857         0.0013937         2.6726005         1.0000000        -2.0000000         0.4000000
         0.0375000         0.9999429        -1.9999573         0.3999681         0.0013937         2.6725859         1.0000000        -2.0000000         0.4000000
         0.0425000         0.9998750        -1.9999064         0.3999300         0.0013937         2.6725542         1.0000000        -2.0000000         0.4000000
         0.0475000         0.9997313        -1.9997989         0.3998496         0.0013936         2.6724873         1.0000000        -2.0000000         0.4000000
         0.0525000         0.9994350        -1.9995771         0.3996836         0.0013934         2.6723493         1.0000000        -2.0000000         0.4000000
         0.0575000         0.9988385        -1.9991305         0.3993498         0.0013931         2.6720712         1.0000000        -2.0000000         0.4000000
         0.0625000         0.9976705        -1.9982556         0.3986964         0.0013924         2.6715261         1.0000000        -2.0000000         0.4000000
         0.0675000         0.9954509        -1.9965909         0.3974558         0.0013912         2.6704877         1.0000000        -2.0000000         0.4000000
         0.0725000         0.9913738        -1.9935262         0.3951801         0.0013889         2.6685732         1.0000000        -2.0000000         0.4000000
         0.0775000         0.9842040        -1.9881142         0.3911870         0.0013849         2.6651868         1.0000000        -2.0000000         0.4000000
         0.0825000         0.9724158        -1.9791500         0.3846447         0.0013782         2.6595664         1.0000000        -2.0000000         0.4000000
         0.0875000         0.9549859        -1.9657352         0.3750243         0.0013683         2.6511224         1.0000000        -2.0000000         0.4000000
         0.0925000         0.9324114        -1.9480590         0.3626648         0.0013552         2.6399104         1.0000000        -2.0000000         0.4000000
         0.0975000         0.9064045        -1.9272541         0.3485736         0.0013400         2.6265687         1.0000000        -2.0000000         0.4000000
         0.1025000         0.8786407        -1.9045009         0.3337092         0.0013234         2.6117928         1.0000000        -2.0000000         0.4000000
         0.1075000         0.8501920        -1.8805768         0.3186731         0.0013060         2.5960487         1.0000000        -2.0000000         0.4000000
         0.1125000         0.8216455        -1.8559152         0.3037872         0.0012883         2.5795955         1.0000000        -2.0000000         0.4000000
         0.1175000         0.7933211        -1.8307572         0.2892208         0.0012703         2.5625743         1.0000000        -2.0000000         0.4000000
         0.1225000         0.7654031        -1.8052461         0.2750660         0.0012522         2.5450663         1.0000000        -2.0000000         0.4000000
         0.1275000         0.7380040        -1.7794743         0.2613738         0.0012340         2.5271210         1.0000000        -2.0000000         0.4000000
         0.1325000         0.7111942        -1.7535043         0.2481716         0.0012159         2.5087701         1.0000000        -2.0000000         0.4000000
         0.1375000         0.6850177        -1.7273804         0.2354720         0.0011977         2.4900334         1.0000000        -2.0000000         0.4000000
         0.1425000         0.6595009        -1.7011344         0.2232781         0.0011796         2.4709231         1.0000000        -2.0000000         0.4000000
         0.1475000         0.6346583        -1.6747894         0.2115865         0.0011616         2.4514453         1.0000000        -2.0000000         0.4000000
         0.1525000         0.6104957        -1.6483624         0.2003895         0.0011437         2.4316021         1.0000000        -2.0000000         0.4000000
         0.1575000         0.5870130        -1.6218660         0.1896767         0.0011259         2.4113919         1.0000000        -2.0000000         0.4000000
         0.1625000         0.5642061        -1.5953092         0.1794358         0.0011081         2.3908108         1.0000000        -2.0000000         0.4000000
         0.1675000         0.5420675        -1.5686984         0.1696529         0.0010905         2.3698531         1.0000000        -2.0000000         0.4000000
         0.1725000         0.5205884        -1.5420381         0.1603139         0.0010730         2.3485118         1.0000000        -2.0000000         0.4000000
         0.1775000         0.4997583        -1.5153313         0.1514038         0.0010556         2.3267796         1.0000000        -2.0000000         0.4000000
         0.1825000         0.4795663        -1.4885795         0.1429075         0.0010383         2.3046490         1.0000000        -2.0000000         0.4000000
         0.1875000         0.4600010        -1.4617835         0.1348102         0.0010211         2.2821127         1.0000000        -2.0000000         0.4000000
         0.1925000         0.4410508        -1.4349431         0.1270968         0.0010041         2.2591637         1.0000000        -2.0000000         0.4000000
         0.1975000         0.4227039        -1.4080575         0.1197526         0.0009871         2.2357951         1.0000000        -2.0000000         0.4000000
         0.2025000         0.4049481        -1.3811253         0.1127632         0.0009703         2.2119996         1.0000000        -2.0000000         0.4000000
         0.2075000         0.3877709        -1.3541446         0.1061144         0.0009535         2.1877686         1.0000000        -2.0000000         0.4000000
         0.2125000         0.3711589        -1.3271133         0.0997925         0.0009368         2.1630916         1.0000000        -2.0000000         0.4000000
         0.2175000         0.3550983        -1.3000289         0.0937842         0.0009202         2.1379549         1.0000000        -2.0000000         0.4000000
         0.2225000         0.3395741        -1.2728887         0.0880764         0.0009037         2.1123408         1.0000000        -2.0000000         0.4000000
         0.2275000         0.3245706        -1.2456896         0.0826567         0.0008873         2.0862262         1.0000000        -2.0000000         0.4000000
         0.2325000         0.3100710        -1.2184286         0.0775131         0.0008710         2.0595820         1.0000000        -2.0000000         0.4000000
         0.2375000         0.2960582        -1.1911025         0.0726341         0.0008548         2.0323728         1.0000000        -2.0000000         0.4000000
         0.2425000         0.2825144        -1.1637078         0.0680086         0.0008388         2.0045558         1.0000000        -2.0000000         0.4000000
         0.2475000         0.2694217        -1.1362412         0.0636262         0.0008229         1.9760817         1.0000000        -2.0000000         0.4000000
         0.2525000         0.2567624        -1.1086990         0.0594766         0.0008071         1.9468942         1.0000000        -2.0000000         0.4000000
         0.2575000         0.2445195        -1.0810779         0.0555503         0.0007916         1.9169313         1.0000000        -2.0000000         0.4000000
         0.2625000         0.2326769        -1.0533742         0.0518381         0.0007763         1.8861260         1.0000000        -2.0000000         0.4000000
         0.2675000         0.2212196        -1.0255842         0.0483312         0.0007612         1.8544076         1.0000000        -2.0000000         0.4000000
         0.2725000         0.2101345        -0.9977043         0.0450213         0.0007465         1.8217031         1.0000000        -2.0000000         0.4000000
         0.2775000         0.1994099        -0.9697308         0.0419002         0.0007321         1.7879392         1.0000000        -2.0000000         0.4000000
         0.2825000         0.1890365        -0.9416601         0.0389601         0.0007181         1.7530433         1.0000000        -2.0000000         0.4000000
         0.2875000         0.1790064        -0.9134882         0.0361937         0.0007045         1.7169461         1.0000000        -2.0000000         0.4000000
         0.2925000         0.1693140        -0.8852115         0.0335936         0.0006913         1.6795823         1.0000000        -2.0000000         0.4000000
         0.2975000         0.1599553        -0.8568260         0.0311527         0.0006786         1.6408929         1.0000000        -2.0000000         0.4000000
         0.3025000         0.1509278        -0.8283279         0.0288641         0.0006664         1.6008256         1.0000000        -2.0000000         0.4000000
         0.3075000         0.1422303        -0.7997131         0.0267210         0.0006546         1.5593364         1.0000000        -2.0000000         0.4000000
         0.3125000         0.1338623        -0.7709778         0.0247168         0.0006434         1.5163903         1.0000000        -2.0000000         0.4000000
         0.3175000         0.1258242        -0.7421178         0.0228449         0.0006326         1.4719611         1.0000000        -2.0000000         0.4000000
         0.3225000         0.1181163        -0.7131292         0.0210989         0.0006224         1.4260318         1.0000000        -2.0000000         0.4000000
         0.3275000         0.1107386        -0.6840079         0.0194724         0.0006127         1.3785948         1.0000000        -2.0000000         0.4000000
         0.3325000         0.1036909        -0.6547499         0.0179593         0.0006035         1.3296505         1.0000000        -2.0000000         0.4000000
         0.3375000         0.0969720        -0.6253513         0.0165533         0.0005948         1.2792077         1.0000000        -2.0000000         0.4000000
         0.3425000         0.0905797        -0.5958078         0.0152485         0.0005866         1.2272816         1.0000000        -2.0000000         0.4000000
         0.3475000         0.0845107        -0.5661149         0.0140390         0.0005788         1.1738934         1.0000000        -2.0000000         0.4000000
         0.3525000         0.0787603        -0.5362676         0.0129190         0.0005715         1.1190685         1.0000000        -2.0000000         0.4000000
         0.3575000         0.0733225        -0.5062597         0.0118830         0.0005647         1.0628348         1.0000000        -2.0000000         0.4000000
         0.3625000         0.0681901        -0.4760833         0.0109254         0.0005583         1.0052206         1.0000000        -2.0000000         0.4000000
         0.3675000         0.0633541        -0.4457282         0.0100409         0.0005522         0.9462527         1.0000000        -2.0000000         0.4000000
         0.3725000         0.0588049        -0.4151790         0.0092244         0.0005466         0.8859493         1.0000000        -2.0000000         0.4000000
         0.3775000         0.0545311        -0.3844142         0.0084708         0.0005413         0.8243170         1.0000000        -2.0000000         0.4000000
         0.3825000         0.0505204        -0.3534022         0.0077753         0.0005363         0.7613428         1.0000000        -2.0000000         0.4000000
         0.3875000         0.0467589        -0.3220956         0.0071329         0.0005315         0.6969803         1.0000000        -2.0000000         0.4000000
         0.3925000         0.0432312        -0.2904227         0.0065387         0.0005270         0.6311296         1.0000000        -2.0000000         0.4000000
         0.3975000         0.0399203        -0.2582778         0.0059879         0.0005226         0.5636142         1.0000000        -2.0000000         0.4000000
         0.4025000         0.0368086        -0.2255241         0.0054757         0.0005183         0.4941780         1.0000000        -2.0000000         0.4000000
         0.4075000         0.0338827        -0.1920495         0.0049985         0.0005140         0.4225895         1.0000000        -2.0000000         0.4000000
         0.4125000         0.0311471        -0.1579870         0.0045566         0.0005097         0.3490965         1.0000000        -2.0000000         0.4000000
         0.4175000         0.0286534        -0.1242793         0.0041600         0.0005059         0.2756602         1.0000000        -2.0000000         0.4000000
         0.4225000         0.0265298        -0.0934825         0.0038343         0.0005036         0.2078226         1.0000000        -2.0000000         0.4000000
         0.4275000         0.0249378        -0.0696344         0.0036127         0.0005048         0.1546225         1.0000000        -2.0000000         0.4000000
         0.4325000         0.0239342        -0.0554025         0.0035128         0.0005114         0.1222223         1.0000000        -2.0000000         0.4000000
         0.4375000         0.0234226        -0.0491245         0.0035143         0.0005228         0.1071850         1.0000000        -2.0000000         0.4000000
         0.4425000         0.0233616        -0.0537831         0.0036187         0.0005397         0.1154931         1.0000000        -2.0000000         0.4000000
         0.4475000         0.0239603        -0.0721033         0.0039000         0.0005671         0.1510440         1.0000000        -2.0000000         0.4000000
         0.4525000         0.0239826        -0.0833548         0.0040910         0.0005944         0.1705694         1.0000000        -2.0000000         0.4000000
         0.4575000         0.0235468        -0.0833119         0.0041920         0.0006203         0.1668782         1.0000000        -2.0000000         0.4000000
         0.4625000         0.0226205        -0.0773610         0.0042047         0.0006477         0.1516507         1.0000000        -2.0000000         0.4000000
         0.4675000         0.0214796        -0.0682338         0.0041835         0.0006786         0.1306716         1.0000000        -2.0000000         0.4000000
         0.4725000         0.0202091        -0.0582196         0.0041615         0.0007175         0.1084316         1.0000000        -2.0000000         0.4000000
         0.4775000         0.0188438        -0.0476785         0.0041455         0.0007665         0.0859124         1.0000000        -2.0000000         0.4000000
         0.4825000         0.0172926        -0.0371952         0.0041331         0.0008328         0.0643005         1.0000000        -2.0000000         0.4000000
         0.4875000         0.0154490        -0.0269136         0.0041234         0.0009300         0.0440279         1.0000000        -2.0000000         0.4000000
         0.4925000         0.0131002        -0.0164333         0.0041177         0.0010952         0.0247726         1.0000000        -2.0000000         0.4000000
         0.4975000         0.0110464        -0.0055400         0.0041158         0.0012982         0.0076706         1.0000000        -2.0000000         0.4000000
         0.5025000         0.0110464         0.0055400         0.0041158         0.0012982         0.0076706         1.0000000        -2.0000000         0.4000000
         0.5075000         0.0131002         0.0164333         0.0041177         0.0010952         0.0247726         1.0000000        -2.0000000         0.4000000
         0.5125000         0.0154490         0.0269136         0.0041234         0.0009300         0.0440279         1.0000000        -2.0000000         0.4000000
         0.5175000         0.0172926         0.0371952         0.0041331         0.0008328         0.0643005         1.0000000        -2.0000000         0.4000000
         0.5225000         0.0188438         0.0476785         0.0041455         0.0007665         0.0859124         1.0000000        -2.0000000         0.4000000
         0.5275000         0.0202091         0.0582196         0.0041615         0.0007175         0.1084316         1.0000000        -2.0000000         0.4000000
         0.5325000         0.0214796         0.0682338         0.0041835         0.0006786         0.1306716         1.0000000        -2.0000000         0.4000000
         0.5375000         0.0226205         0.0773610         0.0042047         0.0006477         0.1516507         1.0000000        -2.0000000         0.4000000
         0.5425000         0.0235468         0.0833119         0.0041920         0.0006203         0.1668782         1.0000000        -2.0000000         0.4000000
         0.5475000         0.0239826         0.0833548         0.0040910         0.0005944         0.1705694         1.0000000        -2.0000000         0.4000000
         0.5525000         0.0239603         0.0721033         0.0039000         0.0005671         0.1510440         1.0000000        -2.0000000         0.4000000
         0.5575000         0.0233616         0.0537831         0.0036187         0.0005397         0.1154931         1.0000000        -2.0000000         0.4000000
         0.5625000         0.0234226         0.0491245         0.0035143         0.0005228         0.1071850         1.0000000        -2.0000000         0.4000000
         0.5675000         0.0239342         0.0554025         0.0035128         0.0005114         0.1222223         1.0000000        -2.0000000         0.4000000
         0.5725000         0.0249378         0.0696344         0.0036127         0.0005048         0.1546225         1.0000000        -2.0000000         0.4000000
         0.5775000         0.0265298         0.0934825         0.0038343         0.0005036         0.2078226         1.0000000        -2.0000000         0.4000000
         0.5825000         0.0286534         0.1242793         0.0041600         0.0005059         0.2756602         1.0000000        -2.0000000         0.4000000
         0.5875000         0.0311471         0.1579870         0.0045566         0.0005097         0.3490965         1.0000000        -2.0000000         0.4000000
         0.5925000         0.0338827         0.1920495         0.0049985         0.0005140         0.4225895         1.0000000        -2.0000000         0.4000000
         0.5975000         0.0368086         0.2255241         0.0054757         0.0005183         0.4941780         1.0000000        -2.0000000         0.4000000
         0.6025000         0.0399203         0.2582778         0.0059879         0.0005226         0.5636142         1.0000000        -2.0000000         0.4000000
         0.6075000         0.0432312         0.2904227         0.0065387         0.0005270         0.6311296         1.0000000        -2.0000000         0.4000000
         0.6125000         0.0467589         0.3220956         0.0071329         0.0005315         0.6969803         1.0000000        -2.0000000         0.4000000
         0.6175000         0.0505204         0.3534022         0.0077753         0.0005363         0.7613428         1.0000000        -2.0000000         0.4000000
         0.6225000         0.0545311         0.3844142         0.0084708         0.0005413         0.8243170        14.2823500         8.6897744      1691.6469402
         0.6275000         0.0588049         0.4151790         0.0092244         0.0005466         0.8859493        14.2823500         8.6897744      1691.6469402
         0.6325000         0.0633541         0.4457282         0.0100409         0.0005522         0.9462527        14.2823500         8.6897744      1691.6469402
         0.6375000         0.0681901         0.4760833         0.0109254         0.0005583         1.0052206        14.2823500         8.6897744      1691.6469402
         0.6425000         0.0733225         0.5062597         0.0118830         0.0005647         1.0628348        14.2823500         8.6897744      1691.6469402
         0.6475000         0.0787603         0.5362676         0.0129190         0.0005715         1.1190685        14.2823500         8.6897744      1691.6469402
         0.6525000         0.0845107         0.5661149         0.0140390         0.0005788         1.1738934        14.2823500         8.6897744      1691.6469402
         0.6575000         0.0905797         0.5958078         0.0152485         0.0005866         1.2272816        14.2823500         8.6897744      1691.6469402
         0.6625000         0.0969720         0.6253513         0.0165533         0.0005948         1.2792077        14.2823500         8.6897744      1691.6469402
         0.6675000         0.1036909         0.6547499         0.0179593         0.0006035         1.3296505        14.2823500         8.6897744      1691.6469402
         0.6725000         0.1107386         0.6840079         0.0194724         0.0006127         1.3785948        14.2823500         8.6897744      1691.6469402
         0.6775000         0.1181163         0.7131292         0.0210989         0.0006224         1.4260318        14.2823500         8.6897744      1691.6469402
         0.6825000         0.1258242         0.7421178         0.0228449         0.0006326         1.4719611        14.2823500         8.6897744      1691.6469402
         0.6875000         0.1338623         0.7709778         0.0247168         0.0006434         1.5163903        14.2823500         8.6897744      1691.6469402
         0.6925000         0.1422303         0.7997131         0.0267210         0.0006546         1.5593364        14.2823500         8.6897744      1691.6469402
         0.6975000         0.1509278         0.8283279         0.0288641         0.0006664         1.6008256        14.2823500         8.6897744      1691.6469402
         0.7025000         0.1599553         0.8568260         0.0311527         0.0006786         1.6408929        14.2823500         8.6897744      1691.6469402
         0.7075000         0.1693140         0.8852115         0.0335936         0.0006913         1.6795823        14.2823500         8.6897744      1691.6469402
         0.7125000         0.1790064         0.9134882         0.0361937         0.0007045         1.7169461        14.2823500         8.6897744      1691.6469402
         0.7175000         0.1890365         0.9416601         0.0389601         0.0007181         1.7530433        14.2823500         8.6897744      1691.6469402
         0.7225000         0.1994099         0.9697308         0.0419002         0.0007321         1.7879392        14.2823500         8.6897744      1691.6469402
         0.7275000         0.2101345         0.9977043         0.0450213         0.0007465         1.8217031        14.2823500         8.6897744      1691.6469402
         0.7325000         0.2212196         1.0255842         0.0483312         0.0007612         1.8544076        14.2823500         8.6897744      1691.6469402
         0.7375000         0.2326769         1.0533742         0.0518381         0.0007763         1.8861260        14.2823500         8.6897744      1691.6469402
         0.7425000         0.2445195         1.0810779         0.0555503         0.0007916         1.9169313        14.2823500         8.6897744      1691.6469402
         0.7475000         0.2567624         1.1086990         0.0594766         0.0008071         1.9468942        14.2823500         8.6897744      1691.6469402
         0.7525000         0.2694217         1.1362412         0.0636262         0.0008229         1.9760817        14.2823500         8.6897744      1691.6469402
         0.7575000         0.2825144         1.1637078         0.0680086         0.0008388         2.0045558        14.2823500         8.6897744      1691.6469402
         0.7625000         0.2960582         1.1911025         0.0726341         0.0008548         2.0323728        14.2823500         8.6897744      1691.6469402
         0.7675000         0.3100710         1.2184286         0.0775131         0.0008710         2.0595820        14.2823500         8.6897744      1691.6469402
         0.7725000         0.3245706         1.2456896         0.0826567         0.0008873         2.0862262        14.2823500         8.6897744      1691.6469402
         0.7775000         0.3395741         1.2728887         0.0880764         0.0009037         2.1123408        14.2823500         8.6897744      1691.6469402
         0.7825000         0.3550983         1.3000289         0.0937842         0.0009202         2.1379549        14.2823500         8.6897744      1691.6469402
         0.7875000         0.3711589         1.3271133         0.0997925         0.0009368         2.1630916        14.2823500         8.6897744      1691.6469402
         0.7925000         0.3877709         1.3541446         0.1061144         0.0009535         2.1877686        14.2823500         8.6897744      1691.6469402
         0.7975000         0.4049481         1.3811253         0.1127632         0.0009703         2.2119996        14.2823500         8.6897744      1691.6469402
         0.8025000         0.4227039         1.4080575         0.1197526         0.0009871         2.2357951        14.2823500         8.6897744      1691.6469402
         0.8075000         0.4410508         1.4349431         0.1270968         0.0010041         2.2591637        14.2823500         8.6897744      1691.6469402
         0.8125000         0.4600010         1.4617835         0.1348102         0.0010211         2.2821127        14.2823500         8.6897744      1691.6469402
         0.8175000         0.4795663         1.4885795         0.1429075         0.0010383         2.3046490        14.2823500         8.6897744      1691.6469402
         0.8225000         0.4997583         1.5153313         0.1514038         0.0010556         2.3267796        14.2823500         8.6897744      1691.6469402
         0.8275000         0.5205884         1.5420381         0.1603139         0.0010730         2.3485118        14.2823500         8.6897744      1691.6469402
         0.8325000         0.5420675         1.5686984         0.1696529         0.0010905         2.3698531        14.2823500         8.6897744      1691.6469402
         0.8375000         0.5642061         1.5953092         0.1794358         0.0011081         2.3908108        14.2823500         8.6897744      1691.6469402
         0.8425000         0.5870130         1.6218660         0.1896767         0.0011259         2.4113919        14.2823500         8.6897744      1691.6469402
         0.8475000         0.6104957         1.6483624         0.2003895         0.0011437         2.4316021        14.2823500         8.6897744      1691.6469402
         0.8525000         0.6346583         1.6747894         0.2115865         0.0011616         2.4514453        14.2823500         8.6897744      1691.6469402
         0.8575000         0.6595009         1.7011344         0.2232781         0.0011796         2.4709231        14.2823500         8.6897744      1691.6469402
         0.8625000         0.6850177         1.7273804         0.2354720         0.0011977         2.4900334        14.2823500         8.6897744      1691.6469402
         0.8675000         0.7111942         1.7535043         0.2481716         0.0012159         2.5087701        14.2823500         8.6897744      1691.6469402
         0.8725000         0.7380040         1.7794743         0.2613738         0.0012340         2.5271210        14.2823500         8.6897744      1691.6469402
         0.8775000         0.7654031         1.8052461         0.2750660         0.0012522         2.5450663        14.2823500         8.6897744      1691.6469402
         0.8825000         0.7933211         1.8307572         0.2892208         0.0012703         2.5625743        14.2823500         8.6897744      1691.6469402
         0.8875000         0.8216455         1.8559152         0.3037872         0.0012883         2.5795955        14.2823500         8.6897744      1691.6469402
         0.8925000         0.8501920         1.8805768         0.3186731         0.0013060         2.5960487        14.2823500         8.6897744      1691.6469402
         0.8975000         0.8786407         1.9045009         0.3337092         0.0013234         2.6117928        14.2823500         8.6897744      1691.6469402
         0.9025000         0.9064045         1.9272541         0.3485736         0.0013400         2.6265687        14.2823500         8.6897744      1691.6469402
         0.9075000         0.9324114         1.9480590         0.3626648         0.0013552         2.6399104        14.2823500         8.6897744      1691.6469402
         0.9125000         0.9549859         1.9657352         0.3750243         0.0013683         2.6511224        14.2823500         8.6897744      1691.6469402